/*--------------------------------*- C++ -*----------------------------------*\
| =========                 |                                                 |
| \\      /  F ield         | OpenFOAM: The Open Source CFD Toolbox           |
|  \\    /   O peration     | Version:  2106                                  |
|   \\  /    A nd           | Website:  www.openfoam.com                      |
|    \\/     M anipulation  |                                                 |
\*---------------------------------------------------------------------------*/
FoamFile
{
    version     2.0;
    format      ascii;
    arch        "LSB;label=32;scalar=64";
    class       volVectorField;
    location    "1051";
    object      D;
}
// * * * * * * * * * * * * * * * * * * * * * * * * * * * * * * * * * * * * * //

dimensions      [0 1 0 0 0 0 0];

internalField   nonuniform List<vector> 
9000
(
(0.368974 -0.26916 0.365158)
(0.120799 -0.182588 0.178753)
(0.0394062 -0.188664 0.0712969)
(0.0234983 -0.254659 -0.106491)
(0.091704 -0.284044 -0.212558)
(0.183387 -0.224667 -0.147734)
(0.210354 -0.096926 0.0536081)
(0.136214 0.0274944 0.253217)
(0.0087385 0.0743769 0.312425)
(-0.084773 0.0265613 0.209781)
(-0.0985061 -0.0650451 0.0423941)
(-0.0479535 -0.134385 -0.084691)
(0.0177594 -0.147536 -0.107787)
(0.0540282 -0.111796 -0.0464686)
(0.0531909 -0.0569192 0.0431061)
(0.0259425 -0.0180666 0.117906)
(-0.024104 -0.0208362 0.146973)
(-0.0863379 -0.0698128 0.0990075)
(-0.111797 -0.147265 -0.024614)
(-0.0606888 -0.19946 -0.126521)
(0.0360903 -0.185716 -0.107526)
(0.0967731 -0.108578 0.0509522)
(0.0609076 -0.0223169 0.232868)
(-0.041132 0.0101934 0.295864)
(-0.110661 -0.0206543 0.204962)
(-0.087815 -0.0627708 0.0786932)
(-0.0216732 -0.0591191 0.0483343)
(-0.00856688 -0.0227196 0.101617)
(-0.0772845 -0.0310276 0.113568)
(-0.175994 -0.134613 0.0650392)
(0.325161 -0.42981 0.395285)
(0.111558 -0.287037 0.181914)
(0.0524929 -0.246078 0.090745)
(0.0398208 -0.24124 -0.0368094)
(0.0919703 -0.226583 -0.116614)
(0.16325 -0.18865 -0.0762673)
(0.181274 -0.135213 0.061854)
(0.116664 -0.0841061 0.196764)
(0.0103785 -0.058154 0.233272)
(-0.0662041 -0.0674088 0.160702)
(-0.0771729 -0.0956279 0.044877)
(-0.0362156 -0.116111 -0.0420814)
(0.0158799 -0.119666 -0.0566696)
(0.0431341 -0.106122 -0.014946)
(0.0412061 -0.0846511 0.0450227)
(0.0197885 -0.0747646 0.0970979)
(-0.0200831 -0.091031 0.123299)
(-0.0727148 -0.125604 0.098444)
(-0.0967717 -0.157276 0.0130808)
(-0.0563406 -0.171105 -0.0614553)
(0.0236388 -0.165027 -0.0503653)
(0.0744722 -0.148979 0.0619231)
(0.0446402 -0.133184 0.192578)
(-0.0406263 -0.125132 0.235939)
(-0.0980575 -0.120667 0.167237)
(-0.0775867 -0.11244 0.0735048)
(-0.0212597 -0.0939222 0.0508253)
(-0.010143 -0.0742801 0.0901545)
(-0.067235 -0.0871548 0.101821)
(-0.149765 -0.168238 0.087752)
(0.262153 -0.528486 0.29105)
(0.103313 -0.346744 0.108903)
(0.06901 -0.278918 0.0414458)
(0.0600552 -0.23692 -0.045448)
(0.0945104 -0.198208 -0.0999748)
(0.14275 -0.171499 -0.0689566)
(0.150584 -0.158307 0.0324664)
(0.0964418 -0.146165 0.129722)
(0.0132073 -0.131176 0.155387)
(-0.0450923 -0.120134 0.103719)
(-0.0530049 -0.113872 0.0214448)
(-0.0225517 -0.108004 -0.0389865)
(0.0143672 -0.106303 -0.0476943)
(0.0315381 -0.104356 -0.0177375)
(0.0279643 -0.10105 0.0244865)
(0.0119041 -0.107176 0.061171)
(-0.0175675 -0.131276 0.0805089)
(-0.0591771 -0.15918 0.0640995)
(-0.0805643 -0.165744 0.00118935)
(-0.051483 -0.158643 -0.0547155)
(0.00939378 -0.157121 -0.0481911)
(0.0487016 -0.174124 0.0318237)
(0.0258705 -0.196486 0.125574)
(-0.0394152 -0.201281 0.155481)
(-0.0818563 -0.177901 0.10535)
(-0.0630679 -0.142788 0.0395723)
(-0.0178217 -0.116626 0.0281036)
(-0.0109032 -0.105861 0.0617864)
(-0.0585418 -0.120059 0.0703769)
(-0.118787 -0.188877 0.0563065)
(0.187528 -0.556827 0.150943)
(0.0959625 -0.358562 0.0204649)
(0.0864563 -0.280972 -0.021563)
(0.0814026 -0.225207 -0.0726677)
(0.097865 -0.177567 -0.103373)
(0.122147 -0.157056 -0.077615)
(0.119495 -0.162772 -0.00501599)
(0.0763678 -0.168562 0.0631197)
(0.0167392 -0.159078 0.0814569)
(-0.0229509 -0.139435 0.0471523)
(-0.027725 -0.117448 -0.00744084)
(-0.00813196 -0.0999483 -0.0459193)
(0.0131107 -0.0960095 -0.049627)
(0.0199059 -0.0993261 -0.0287326)
(0.0143885 -0.104703 -0.000497035)
(0.00314919 -0.118198 0.023222)
(-0.0162115 -0.144962 0.0347768)
(-0.0460386 -0.168911 0.0222032)
(-0.0637755 -0.163567 -0.0227795)
(-0.0462 -0.147318 -0.06275)
(-0.005466 -0.148436 -0.0597988)
(0.0215053 -0.179921 -0.00706846)
(0.00614734 -0.218537 0.0549392)
(-0.0376297 -0.228455 0.0736139)
(-0.0637661 -0.197465 0.0401069)
(-0.0464078 -0.152149 -0.000352845)
(-0.0128626 -0.124515 -0.000461456)
(-0.0112298 -0.11872 0.0299402)
(-0.0505983 -0.131981 0.0349759)
(-0.085046 -0.191182 0.0116303)
(0.110318 -0.523827 0.0155368)
(0.0881645 -0.33148 -0.0601846)
(0.101906 -0.257462 -0.078871)
(0.100729 -0.203388 -0.0997898)
(0.100567 -0.157317 -0.109912)
(0.102286 -0.140374 -0.088227)
(0.0899656 -0.15149 -0.039949)
(0.0576283 -0.162171 0.00397082)
(0.0204152 -0.154968 0.0164337)
(-0.00166829 -0.134023 -0.0032648)
(-0.00346179 -0.108466 -0.0342141)
(0.00573065 -0.0889313 -0.0540043)
(0.0120866 -0.0849193 -0.0533608)
(0.0090859 -0.0897882 -0.0398605)
(0.00161482 -0.0978242 -0.0233862)
(-0.00539476 -0.112875 -0.0108304)
(-0.0154841 -0.138308 -0.00645362)
(-0.0338458 -0.159014 -0.0167012)
(-0.0476025 -0.150287 -0.0463963)
(-0.0409099 -0.132662 -0.0726152)
(-0.0195664 -0.135122 -0.0727702)
(-0.00450566 -0.169025 -0.0433181)
(-0.0125968 -0.209483 -0.00847475)
(-0.0355253 -0.219454 0.000707809)
(-0.0458756 -0.188165 -0.0185775)
(-0.0298833 -0.143818 -0.037306)
(-0.00758851 -0.119347 -0.0274844)
(-0.0112276 -0.11685 0.000535447)
(-0.0429587 -0.127867 0.00247293)
(-0.0513644 -0.177119 -0.0312504)
(0.0379066 -0.446809 -0.0967576)
(0.0788907 -0.278925 -0.123824)
(0.113077 -0.217789 -0.123647)
(0.11557 -0.174368 -0.12123)
(0.101527 -0.136097 -0.115333)
(0.0840663 -0.121264 -0.0970945)
(0.0637917 -0.12978 -0.0683986)
(0.0412938 -0.137718 -0.0438108)
(0.0238075 -0.130844 -0.0360537)
(0.0171643 -0.112703 -0.0440942)
(0.0179674 -0.0908599 -0.0559064)
(0.0179458 -0.0750631 -0.0606596)
(0.011286 -0.0724602 -0.0564502)
(-0.00020932 -0.0769009 -0.0487501)
(-0.00939221 -0.0839771 -0.0417401)
(-0.0128008 -0.0969313 -0.0382277)
(-0.0149024 -0.118448 -0.039649)
(-0.0231213 -0.136074 -0.0481119)
(-0.0332114 -0.129001 -0.0654734)
(-0.0360712 -0.114618 -0.080685)
(-0.0317887 -0.117543 -0.0834994)
(-0.0271357 -0.146717 -0.0727287)
(-0.0287525 -0.180454 -0.0595467)
(-0.0333406 -0.187468 -0.0578511)
(-0.0299319 -0.160027 -0.0658644)
(-0.0153076 -0.123205 -0.0674619)
(-0.00289008 -0.104935 -0.0498639)
(-0.0109719 -0.105288 -0.0236998)
(-0.0354937 -0.11354 -0.0240497)
(-0.020071 -0.151884 -0.0665937)
(-0.0245526 -0.345116 -0.177834)
(0.0679181 -0.21444 -0.167478)
(0.118832 -0.171565 -0.154067)
(0.124606 -0.1427 -0.135415)
(0.100171 -0.114914 -0.118423)
(0.0680752 -0.101352 -0.103147)
(0.0420826 -0.10329 -0.0891673)
(0.028024 -0.104648 -0.0790315)
(0.0266997 -0.0969331 -0.0748375)
(0.0326136 -0.083411 -0.0741261)
(0.0354622 -0.0688723 -0.0714985)
(0.0278496 -0.0596876 -0.0650167)
(0.0106786 -0.0593769 -0.0581272)
(-0.00758208 -0.0625493 -0.0547192)
(-0.01806 -0.0668128 -0.0548208)
(-0.0184941 -0.075724 -0.0580683)
(-0.0141383 -0.0920575 -0.0636234)
(-0.0141793 -0.106795 -0.0704786)
(-0.0213532 -0.103784 -0.0786274)
(-0.032008 -0.0948148 -0.085789)
(-0.0415025 -0.0976871 -0.0907877)
(-0.0451155 -0.118687 -0.0939443)
(-0.0413891 -0.141642 -0.0966695)
(-0.0312355 -0.144255 -0.100365)
(-0.0169913 -0.122456 -0.100117)
(-0.00377985 -0.0960922 -0.0893968)
(0.000628271 -0.085607 -0.0664053)
(-0.0106383 -0.0889751 -0.0418333)
(-0.0283341 -0.0945412 -0.0435911)
(0.00723661 -0.121423 -0.0923588)
(-0.0739687 -0.236403 -0.226075)
(0.0557086 -0.149327 -0.191819)
(0.119114 -0.12659 -0.170985)
(0.127631 -0.112613 -0.142545)
(0.096409 -0.09545 -0.118966)
(0.054526 -0.0826716 -0.106264)
(0.0251913 -0.0768501 -0.102584)
(0.018035 -0.0703759 -0.102471)
(0.0290676 -0.0611494 -0.100761)
(0.0444211 -0.052508 -0.0938707)
(0.0486727 -0.0462121 -0.0811165)
(0.0352177 -0.0444198 -0.0669135)
(0.0102143 -0.0467717 -0.0582224)
(-0.0129535 -0.0485502 -0.0578013)
(-0.024222 -0.0494157 -0.0628449)
(-0.0222675 -0.0536269 -0.0706848)
(-0.013038 -0.0645398 -0.0787601)
(-0.00709575 -0.0767137 -0.0840785)
(-0.0122901 -0.0783671 -0.0858709)
(-0.0288689 -0.0752615 -0.0876959)
(-0.0485624 -0.0778673 -0.0944203)
(-0.0581071 -0.0898717 -0.107162)
(-0.0502584 -0.101199 -0.120543)
(-0.029288 -0.0990663 -0.127706)
(-0.00741534 -0.0831022 -0.12188)
(0.00428026 -0.0675741 -0.10319)
(0.00260799 -0.0652762 -0.0771077)
(-0.010494 -0.0720344 -0.0541219)
(-0.02174 -0.0754223 -0.0565049)
(0.0297771 -0.0910684 -0.108577)
(-0.109087 -0.134719 -0.244242)
(0.0430777 -0.0916408 -0.199709)
(0.114634 -0.0880955 -0.176746)
(0.12525 -0.0871721 -0.143807)
(0.0905029 -0.07925 -0.11732)
(0.0433355 -0.0669817 -0.106882)
(0.0128837 -0.0539522 -0.10988)
(0.011195 -0.0400239 -0.116092)
(0.0310209 -0.0289482 -0.115883)
(0.0528457 -0.0244892 -0.104895)
(0.0578399 -0.0256638 -0.085602)
(0.0401722 -0.0306558 -0.0666253)
(0.00983823 -0.0356386 -0.0569215)
(-0.0164827 -0.0363066 -0.0584377)
(-0.0280278 -0.0340301 -0.0665941)
(-0.024203 -0.0337747 -0.077162)
(-0.0115855 -0.0397103 -0.0863885)
(-0.00175875 -0.049703 -0.0902614)
(-0.00589569 -0.0555429 -0.0880375)
(-0.0266579 -0.0577183 -0.0867422)
(-0.0531869 -0.0600773 -0.0947861)
(-0.0664694 -0.0639473 -0.113514)
(-0.0556272 -0.0648347 -0.133236)
(-0.0275124 -0.0583004 -0.142261)
(-0.0010389 -0.0473997 -0.133017)
(0.00896394 -0.041528 -0.109897)
(0.00288889 -0.0469486 -0.0827478)
(-0.0108405 -0.0574276 -0.0615514)
(-0.0159827 -0.0594237 -0.0639824)
(0.0475508 -0.0648673 -0.116601)
(-0.130268 -0.0498658 -0.237759)
(0.0308649 -0.0461043 -0.195063)
(0.106494 -0.0587922 -0.174301)
(0.118513 -0.0680864 -0.140858)
(0.0829114 -0.0673609 -0.114202)
(0.0342428 -0.0554691 -0.105781)
(0.00456686 -0.0366593 -0.112712)
(0.00715352 -0.0165417 -0.122372)
(0.0327439 -0.00353357 -0.122794)
(0.0584636 -0.00205523 -0.109249)
(0.0635797 -0.00898905 -0.0861671)
(0.0430584 -0.0193627 -0.0646898)
(0.00950347 -0.0266588 -0.0546223)
(-0.0184669 -0.0267059 -0.0572827)
(-0.0298231 -0.0220284 -0.0671232)
(-0.0245628 -0.018075 -0.0789415)
(-0.00984765 -0.019846 -0.0882736)
(0.00206085 -0.0279998 -0.0908473)
(-0.00180979 -0.0370275 -0.0863684)
(-0.0252908 -0.0434167 -0.0836078)
(-0.0558083 -0.045714 -0.0926388)
(-0.0709719 -0.0432296 -0.11461)
(-0.0580685 -0.0359049 -0.137433)
(-0.0258807 -0.0257088 -0.147069)
(0.00261663 -0.0186169 -0.135999)
(0.0106759 -0.0204443 -0.111105)
(0.00145898 -0.0325667 -0.0845187)
(-0.0119608 -0.0469222 -0.065454)
(-0.0112839 -0.0484414 -0.067621)
(0.0611327 -0.0453426 -0.118537)
(-0.139186 0.0124624 -0.213328)
(0.0197052 -0.0146188 -0.18197)
(0.0958702 -0.0393551 -0.16659)
(0.108613 -0.0558308 -0.135444)
(0.0741622 -0.0602003 -0.110494)
(0.0269143 -0.0486556 -0.103884)
(-0.000501409 -0.0257704 -0.112811)
(0.0054608 -0.00108651 -0.123812)
(0.0344415 0.0137408 -0.124124)
(0.0619901 0.0136154 -0.109063)
(0.0666855 0.00299769 -0.0841241)
(0.0443334 -0.0110236 -0.0617564)
(0.00917995 -0.0201505 -0.0518099)
(-0.0192576 -0.0201381 -0.0550563)
(-0.0300421 -0.0140109 -0.0655448)
(-0.0236931 -0.00737777 -0.0775315)
(-0.00792403 -0.00593108 -0.0862483)
(0.00464309 -0.0124966 -0.0877059)
(0.000424953 -0.0235568 -0.0822085)
(-0.0246456 -0.0329813 -0.0791225)
(-0.0569468 -0.0355036 -0.0888963)
(-0.0725472 -0.0288006 -0.112184)
(-0.0582752 -0.0158134 -0.135879)
(-0.0243469 -0.00287394 -0.145221)
(0.00415669 0.00179847 -0.133387)
(0.00996117 -0.00552584 -0.108554)
(-0.00159517 -0.0230748 -0.0837475)
(-0.0140887 -0.0412483 -0.0672167)
(-0.00783273 -0.0431957 -0.0690874)
(0.0713027 -0.0335124 -0.116765)
(-0.138435 0.0501362 -0.177903)
(0.00992539 0.00302155 -0.164157)
(0.0837994 -0.0290225 -0.156186)
(0.0966712 -0.0499041 -0.129142)
(0.0647615 -0.0575573 -0.107075)
(0.0210154 -0.0464168 -0.102111)
(-0.00306102 -0.0210939 -0.111743)
(0.00565123 0.00651765 -0.122635)
(0.0362994 0.0229236 -0.122241)
(0.0641449 0.0225161 -0.106277)
(0.0679762 0.0102531 -0.0807045)
(0.0444792 -0.00567907 -0.0584698)
(0.00885689 -0.016098 -0.048965)
(-0.0192006 -0.0165663 -0.0524413)
(-0.0291274 -0.00995966 -0.0628892)
(-0.0219517 -0.00170652 -0.0743202)
(-0.00591581 0.00203858 -0.0819809)
(0.00627015 -0.00309324 -0.0825106)
(0.00126585 -0.0150889 -0.0768048)
(-0.0245973 -0.026475 -0.0741195)
(-0.0571167 -0.0295474 -0.0844813)
(-0.0721168 -0.0207295 -0.107866)
(-0.0569301 -0.00450792 -0.131038)
(-0.0228694 0.0102448 -0.139493)
(0.00418269 0.0137843 -0.12752)
(0.00738117 0.00306817 -0.103894)
(-0.00612993 -0.0185841 -0.0817001)
(-0.017397 -0.0403395 -0.0680969)
(-0.00580655 -0.0434695 -0.0698948)
(0.0786852 -0.0290628 -0.113572)
(-0.131083 0.0639197 -0.137984)
(0.00155055 0.00844204 -0.144723)
(0.0710834 -0.0261341 -0.145125)
(0.0836307 -0.0491242 -0.123225)
(0.0551415 -0.0586751 -0.104705)
(0.0162485 -0.0480648 -0.101265)
(-0.00376895 -0.0217101 -0.1108)
(0.00728974 0.00737158 -0.120653)
(0.0384588 0.0250426 -0.119103)
(0.0655601 0.0254552 -0.102507)
(0.0681931 0.0133065 -0.0769531)
(0.043944 -0.00301177 -0.0553949)
(0.00854105 -0.0142096 -0.0465069)
(-0.0185992 -0.0156172 -0.0500216)
(-0.0274778 -0.0093974 -0.0600233)
(-0.0196641 -0.000489414 -0.0704714)
(-0.00390996 0.00475472 -0.076856)
(0.0071962 0.000975877 -0.0766233)
(0.00111383 -0.0110349 -0.0711975)
(-0.0250336 -0.0235008 -0.0693367)
(-0.0567664 -0.0274268 -0.0802136)
(-0.0704873 -0.0183221 -0.103041)
(-0.0546349 -0.000931365 -0.124937)
(-0.0214268 0.0147997 -0.132171)
(0.00321409 0.018258 -0.120353)
(0.00344262 0.00595345 -0.0985389)
(-0.0119754 -0.0185784 -0.0794649)
(-0.0219913 -0.0435556 -0.0691313)
(-0.00534945 -0.0483342 -0.0712791)
(0.0836675 -0.0305785 -0.110888)
(-0.120226 0.056775 -0.0991512)
(-0.00561722 0.00413979 -0.126045)
(0.0582747 -0.0285597 -0.134874)
(0.0702139 -0.0518839 -0.118599)
(0.0456376 -0.0623708 -0.103943)
(0.0123662 -0.0524481 -0.101954)
(-0.00317111 -0.0261708 -0.110941)
(0.00999063 0.0031851 -0.119212)
(0.0410032 0.0217645 -0.116186)
(0.0667326 0.0237732 -0.0989789)
(0.0679387 0.0130742 -0.0736744)
(0.0431071 -0.00244217 -0.0529743)
(0.00825402 -0.0139825 -0.044761)
(-0.0176924 -0.0166687 -0.0482465)
(-0.0254199 -0.0115273 -0.0576102)
(-0.0171016 -0.00275859 -0.0668758)
(-0.00197648 0.00334487 -0.0719261)
(0.00763127 0.000873986 -0.0710631)
(0.000293256 -0.0104527 -0.0661746)
(-0.0258568 -0.023321 -0.065356)
(-0.0562462 -0.0283261 -0.0767412)
(-0.0683012 -0.0203444 -0.0987792)
(-0.0518798 -0.00337907 -0.119102)
(-0.0200256 0.0126449 -0.124987)
(0.00165096 0.0167701 -0.113385)
(-0.00143824 0.00427095 -0.0935958)
(-0.0189542 -0.0220998 -0.0778928)
(-0.0279073 -0.0498523 -0.071101)
(-0.0065329 -0.056342 -0.0741375)
(0.0865146 -0.0357928 -0.110098)
(-0.108605 0.033207 -0.0657808)
(-0.0118815 -0.00694226 -0.109769)
(0.0457164 -0.033999 -0.126341)
(0.0569319 -0.0563529 -0.115787)
(0.0364879 -0.0671598 -0.105095)
(0.00917322 -0.0580584 -0.104533)
(-0.00170189 -0.0326579 -0.112763)
(0.0134207 -0.00395463 -0.119188)
(0.0439495 0.0151328 -0.114477)
(0.0680006 0.0191271 -0.0965215)
(0.0676465 0.0107048 -0.0714154)
(0.0422605 -0.00321717 -0.0515082)
(0.00803141 -0.0147648 -0.0439397)
(-0.0166449 -0.0189276 -0.0474093)
(-0.0231963 -0.0153469 -0.0560909)
(-0.014474 -0.00730878 -0.0641358)
(-0.000172071 -0.000825669 -0.067903)
(0.00773336 -0.00203615 -0.0665119)
(-0.000947939 -0.0122005 -0.0622634)
(-0.0269773 -0.0249725 -0.0625715)
(-0.0557918 -0.0311513 -0.0745016)
(-0.0660165 -0.0252118 -0.0957985)
(-0.0490351 -0.00976585 -0.114555)
(-0.0187045 0.00602588 -0.119106)
(-0.000240265 0.0112365 -0.107653)
(-0.00694744 -0.000523848 -0.0898433)
(-0.0268885 -0.02791 -0.0775741)
(-0.0351104 -0.0579089 -0.0745186)
(-0.00934733 -0.0656926 -0.0789962)
(0.0874065 -0.0418524 -0.111908)
(-0.0983229 -0.00134076 -0.0408786)
(-0.017531 -0.0217221 -0.0968388)
(0.0336046 -0.0401845 -0.119918)
(0.0441178 -0.0606297 -0.114927)
(0.0278477 -0.0713684 -0.108174)
(0.00652209 -0.0631404 -0.109055)
(0.000304248 -0.0391158 -0.116473)
(0.017293 -0.0117563 -0.120979)
(0.0472403 0.00737304 -0.114476)
(0.069531 0.0133239 -0.0955713)
(0.0675734 0.00745906 -0.0704678)
(0.0416045 -0.00448815 -0.051146)
(0.00792384 -0.0158139 -0.0441297)
(-0.0155436 -0.0214978 -0.0476347)
(-0.020965 -0.0197379 -0.0556777)
(-0.0119318 -0.0128181 -0.0625667)
(0.00145393 -0.00630034 -0.0651702)
(0.00760532 -0.00632986 -0.0633361)
(-0.00243017 -0.0150559 -0.0597403)
(-0.028301 -0.0273686 -0.061177)
(-0.0555144 -0.0346396 -0.0736984)
(-0.0639064 -0.0311441 -0.0944514)
(-0.0463566 -0.0178222 -0.111823)
(-0.0175374 -0.00264852 -0.115155)
(-0.00233096 0.00373283 -0.103742)
(-0.012873 -0.00682793 -0.0877342)
(-0.0355966 -0.0346166 -0.0788351)
(-0.0434926 -0.0662258 -0.0796183)
(-0.0137235 -0.0743758 -0.0859883)
(0.0863443 -0.0456074 -0.11625)
(-0.0906792 -0.0410471 -0.0260223)
(-0.0227481 -0.0372041 -0.0875522)
(0.0220568 -0.0450149 -0.115523)
(0.031975 -0.0628556 -0.115777)
(0.0198124 -0.0732405 -0.112873)
(0.00430918 -0.0658082 -0.115225)
(0.00259789 -0.0433817 -0.121869)
(0.0213546 -0.0178667 -0.124517)
(0.0507331 0.000744555 -0.116212)
(0.0713133 0.00819089 -0.0961891)
(0.0678031 0.00461607 -0.0708765)
(0.04125 -0.00538051 -0.051884)
(0.00799934 -0.0163524 -0.0452845)
(-0.0143984 -0.0234407 -0.0488701)
(-0.0188044 -0.0235415 -0.0563511)
(-0.00957341 -0.0179416 -0.0622039)
(0.00285229 -0.0116366 -0.0638034)
(0.00729477 -0.0106199 -0.0616125)
(-0.00403162 -0.0178079 -0.0586466)
(-0.0297165 -0.0293858 -0.0611632)
(-0.0553955 -0.03746 -0.0742886)
(-0.0620678 -0.0362948 -0.0947187)
(-0.0439967 -0.0252436 -0.110956)
(-0.0166382 -0.0109706 -0.11325)
(-0.00463004 -0.00366786 -0.101804)
(-0.0190984 -0.0130218 -0.0874122)
(-0.0448782 -0.0407755 -0.0817405)
(-0.0528598 -0.0732073 -0.0863432)
(-0.0195628 -0.0802981 -0.0948326)
(0.0829933 -0.0439179 -0.122244)
(-0.0861309 -0.0802259 -0.021396)
(-0.0275547 -0.050655 -0.0816181)
(0.0111736 -0.0466504 -0.112644)
(0.0206266 -0.061312 -0.117724)
(0.0124417 -0.0710513 -0.118532)
(0.00247121 -0.0641783 -0.122366)
(0.00499944 -0.0433294 -0.128313)
(0.0253712 -0.0200077 -0.129252)
(0.0541926 -0.00258915 -0.119249)
(0.0731606 0.00546525 -0.0980714)
(0.0682531 0.00339155 -0.0724479)
(0.0412243 -0.00505924 -0.0535671)
(0.00834631 -0.0156246 -0.0472194)
(-0.0131439 -0.0238359 -0.050879)
(-0.0167201 -0.0256269 -0.0578567)
(-0.0074573 -0.0213907 -0.0628094)
(0.003964 -0.0154879 -0.0635915)
(0.00679587 -0.0136353 -0.0611559)
(-0.00567587 -0.0193305 -0.058805)
(-0.0310833 -0.0299425 -0.0623179)
(-0.0552862 -0.0383113 -0.0759739)
(-0.0604317 -0.0388681 -0.0962067)
(-0.0420189 -0.0298186 -0.111535)
(-0.0161697 -0.016665 -0.113021)
(-0.00728154 -0.00903012 -0.101591)
(-0.0255918 -0.017579 -0.0887323)
(-0.0544939 -0.0449867 -0.0861024)
(-0.0629075 -0.077248 -0.094335)
(-0.0267315 -0.0814134 -0.104815)
(0.07664 -0.0339763 -0.128223)
(-0.0843215 -0.113771 -0.0259012)
(-0.0317957 -0.0597443 -0.0782199)
(0.00108127 -0.0435914 -0.110372)
(0.0101574 -0.0545284 -0.119778)
(0.00577889 -0.0632458 -0.124118)
(0.000983713 -0.0565365 -0.12939)
(0.00738658 -0.037037 -0.134714)
(0.0291134 -0.0161302 -0.134156)
(0.0572856 -0.000701135 -0.122695)
(0.0747183 0.00667654 -0.100563)
(0.0686834 0.00485441 -0.0747572)
(0.0414793 -0.00279558 -0.0558936)
(0.00907651 -0.0129591 -0.0496111)
(-0.0116412 -0.0218493 -0.053237)
(-0.0146528 -0.0249684 -0.0597025)
(-0.0056147 -0.0220149 -0.0638776)
(0.00470944 -0.0166823 -0.0640551)
(0.00605193 -0.0142906 -0.0615446)
(-0.00731936 -0.0186554 -0.0598367)
(-0.032223 -0.0280809 -0.0642278)
(-0.0549113 -0.0360273 -0.0781983)
(-0.0587738 -0.0372475 -0.0981456)
(-0.0404132 -0.0295607 -0.112679)
(-0.0163545 -0.0177181 -0.113635)
(-0.0105605 -0.0106773 -0.102489)
(-0.0323943 -0.019168 -0.0912848)
(-0.0641437 -0.0459906 -0.0914928)
(-0.0731849 -0.0768312 -0.102924)
(-0.0350137 -0.075874 -0.114775)
(0.0662963 -0.0136296 -0.1318)
(-0.0841737 -0.137535 -0.0373282)
(-0.0351601 -0.0626817 -0.0760772)
(-0.00804991 -0.0347732 -0.107438)
(0.000641823 -0.0414247 -0.120584)
(-0.000137643 -0.0486267 -0.12821)
(-0.000140725 -0.0415532 -0.134792)
(0.00968666 -0.0229956 -0.139519)
(0.0323482 -0.00460856 -0.137718)
(0.059584 0.00792376 -0.125216)
(0.0754802 0.0130101 -0.102675)
(0.0687102 0.00982863 -0.0771613)
(0.0419014 0.00196056 -0.0584278)
(0.0103265 -0.00783945 -0.0520029)
(-0.00968235 -0.0168191 -0.0553339)
(-0.0124864 -0.0207395 -0.0611584)
(-0.00406205 -0.0188999 -0.0646423)
(0.00498114 -0.0143125 -0.0644673)
(0.00495913 -0.0117574 -0.0621469)
(-0.0089423 -0.0150484 -0.0611821)
(-0.0329149 -0.0230614 -0.0662877)
(-0.053878 -0.0296987 -0.0801536)
(-0.0567298 -0.030152 -0.099396)
(-0.0391095 -0.0228718 -0.113052)
(-0.0174823 -0.0125315 -0.113819)
(-0.0148652 -0.00731396 -0.103552)
(-0.039608 -0.0167594 -0.0944255)
(-0.0734488 -0.0427714 -0.0972658)
(-0.0830634 -0.070653 -0.111126)
(-0.0440601 -0.0622161 -0.123101)
(0.0508477 0.0183071 -0.129995)
(-0.084068 -0.14867 -0.0525889)
(-0.0372243 -0.0583742 -0.0735121)
(-0.0160075 -0.0197061 -0.102242)
(-0.00784374 -0.0215088 -0.118436)
(-0.0052698 -0.0266069 -0.129017)
(-0.000858694 -0.018555 -0.136667)
(0.0118716 -0.000381374 -0.140729)
(0.0348395 0.0155014 -0.13796)
(0.0605802 0.0241637 -0.125065)
(0.0748152 0.0251484 -0.103118)
(0.0678326 0.0187756 -0.0788278)
(0.0423273 0.00950073 -0.0606218)
(0.0122566 1.28553e-05 -0.0538226)
(-0.00700061 -0.00836039 -0.0563881)
(-0.0100597 -0.0124377 -0.0612675)
(-0.00281062 -0.0114927 -0.0640944)
(0.00464301 -0.00784569 -0.0638817)
(0.00337306 -0.00555325 -0.0621509)
(-0.0105453 -0.00808837 -0.0621294)
(-0.0329019 -0.0144733 -0.0677256)
(-0.0516939 -0.0188192 -0.0808)
(-0.0538184 -0.016833 -0.0984726)
(-0.0379914 -0.00875768 -0.110883)
(-0.0199079 -0.000120888 -0.111889)
(-0.020703 0.0018325 -0.10355)
(-0.0473823 -0.00973953 -0.0973216)
(-0.081944 -0.0346766 -0.102592)
(-0.0917223 -0.0577986 -0.11764)
(-0.0533549 -0.0396052 -0.127746)
(0.0291971 0.0617237 -0.119391)
(-0.0820975 -0.145914 -0.068012)
(-0.0375177 -0.046623 -0.0685373)
(-0.0225594 0.00131334 -0.0929093)
(-0.015222 0.00486079 -0.111337)
(-0.00958275 0.00248302 -0.124448)
(-0.00110868 0.0121489 -0.132796)
(0.013951 0.0305967 -0.135973)
(0.0363608 0.0441204 -0.132502)
(0.0597233 0.0479747 -0.120152)
(0.0720126 0.0430764 -0.100362)
(0.0654799 0.0316621 -0.078794)
(0.0425661 0.0197751 -0.0618586)
(0.0150453 0.0105487 -0.0544179)
(-0.00328917 0.00350958 -0.0554801)
(-0.00718372 -4.13457e-05 -0.0588809)
(-0.00187232 0.000238205 -0.0610234)
(0.00353699 0.00274273 -0.0611795)
(0.00112048 0.00435179 -0.0606081)
(-0.0121487 0.00224312 -0.0618572)
(-0.0319098 -0.00235732 -0.0676544)
(-0.0478017 -0.00345785 -0.0789196)
(-0.0494794 0.00268134 -0.0936038)
(-0.0369106 0.0128802 -0.104011)
(-0.0240327 0.0196264 -0.105817)
(-0.028657 0.016843 -0.101034)
(-0.0558951 0.00197491 -0.0990225)
(-0.0890889 -0.0215441 -0.106515)
(-0.0981748 -0.0379795 -0.120896)
(-0.0622194 -0.00815591 -0.126283)
(0.000395576 0.114852 -0.0963776)
(-0.0763919 -0.12982 -0.0797079)
(-0.0356138 -0.02837 -0.0589977)
(-0.0274943 0.0269246 -0.0774066)
(-0.0214318 0.036146 -0.0971324)
(-0.013056 0.0370512 -0.112261)
(-0.000832845 0.0488969 -0.120805)
(0.0159585 0.0682668 -0.122683)
(0.0367189 0.0797183 -0.118725)
(0.0564847 0.0780453 -0.108194)
(0.0663693 0.0658395 -0.0927581)
(0.0610874 0.047834 -0.0760645)
(0.0424295 0.0323222 -0.0615217)
(0.0188735 0.0233046 -0.0531196)
(0.00176472 0.0182295 -0.0516192)
(-0.00366531 0.0158005 -0.0527345)
(-0.0012612 0.0156111 -0.0540994)
(0.00150015 0.0168134 -0.0551505)
(-0.0019807 0.0174206 -0.0565071)
(-0.013791 0.0154593 -0.0595009)
(-0.0296835 0.0126792 -0.0651577)
(-0.0416464 0.0155563 -0.073218)
(-0.0431408 0.0272967 -0.0828542)
(-0.0357066 0.0408703 -0.090027)
(-0.0302599 0.0456272 -0.0933626)
(-0.0393196 0.0369224 -0.0944508)
(-0.0653221 0.0178415 -0.098564)
(-0.0943099 -0.00382483 -0.10805)
(-0.101359 -0.0118286 -0.119162)
(-0.0698595 0.0306486 -0.116064)
(-0.0361722 0.173844 -0.0575118)
(-0.0654585 -0.102872 -0.0840124)
(-0.0312501 -0.00596347 -0.0428042)
(-0.0306796 0.0543707 -0.0537554)
(-0.026456 0.0692892 -0.07376)
(-0.0157037 0.0739191 -0.0903335)
(-1.00921e-05 0.0883249 -0.0984572)
(0.017928 0.109056 -0.0984207)
(0.0357907 0.118856 -0.0940972)
(0.0504604 0.111446 -0.0869921)
(0.0573253 0.0913095 -0.0787404)
(0.0542059 0.0659272 -0.0697546)
(0.0417705 0.046239 -0.0590968)
(0.0238948 0.0373423 -0.049339)
(0.0084255 0.0345597 -0.0438612)
(0.000658329 0.0335677 -0.0415895)
(-0.000989107 0.0330285 -0.042022)
(-0.00160466 0.0329069 -0.0446286)
(-0.00608949 0.0324388 -0.0488897)
(-0.0155231 0.0304824 -0.0542624)
(-0.0260345 0.0293833 -0.0594151)
(-0.0327802 0.0364707 -0.062492)
(-0.0343262 0.0545603 -0.06435)
(-0.0342359 0.0723444 -0.066539)
(-0.0389139 0.0752532 -0.0723159)
(-0.0531755 0.0602132 -0.0823278)
(-0.0757873 0.0366467 -0.0951114)
(-0.0970781 0.0173507 -0.106316)
(-0.100307 0.0188116 -0.110763)
(-0.0754745 0.0734856 -0.0945414)
(-0.080526 0.232357 -6.15569e-05)
(-0.0485017 -0.0694427 -0.0780066)
(-0.0244557 0.016624 -0.0182798)
(-0.0321309 0.0791857 -0.0203873)
(-0.0303556 0.0994271 -0.0396456)
(-0.0176028 0.108065 -0.0570798)
(0.0013005 0.125103 -0.0641062)
(0.0198631 0.147188 -0.061395)
(0.0335673 0.155836 -0.0567034)
(0.0415053 0.143343 -0.0548583)
(0.0446429 0.116024 -0.05715)
(0.044645 0.0838691 -0.0592878)
(0.0405296 0.0602293 -0.0542975)
(0.0301904 0.0512488 -0.0426972)
(0.0168328 0.0504786 -0.0314865)
(0.00587616 0.0506996 -0.02446)
(-0.00105559 0.0498061 -0.0237546)
(-0.00584426 0.0486132 -0.0286981)
(-0.011296 0.0474302 -0.037022)
(-0.0173959 0.0456091 -0.0455638)
(-0.0209019 0.0458557 -0.0498709)
(-0.0210028 0.0565242 -0.0458689)
(-0.0228035 0.0804172 -0.0366277)
(-0.0324142 0.102363 -0.0316252)
(-0.0501283 0.104014 -0.0408999)
(-0.0704323 0.0836658 -0.0635429)
(-0.0872927 0.0565718 -0.0881388)
(-0.0970252 0.0402107 -0.100731)
(-0.0943855 0.0507193 -0.0944093)
(-0.0784314 0.11483 -0.0597993)
(-0.131787 0.281317 0.0772382)
(-0.0256965 -0.035479 -0.0600691)
(-0.0156339 0.0337229 0.0154002)
(-0.0320828 0.0950189 0.0233507)
(-0.0333106 0.119761 0.00573761)
(-0.0189252 0.132554 -0.0120081)
(0.00291182 0.151899 -0.0172949)
(0.0217037 0.174668 -0.0111524)
(0.0301959 0.182656 -0.00594001)
(0.0298812 0.16692 -0.0112205)
(0.0286174 0.135196 -0.0276743)
(0.0326358 0.0990328 -0.0446367)
(0.038785 0.0727734 -0.0472113)
(0.0377158 0.0632445 -0.0331836)
(0.0269137 0.0631709 -0.0142446)
(0.0119565 0.0635248 -0.00092758)
(-0.00143464 0.0621014 0.00115317)
(-0.0111645 0.0605292 -0.00697424)
(-0.0175691 0.059666 -0.0206265)
(-0.0194427 0.0585797 -0.033252)
(-0.0144153 0.0596762 -0.0364355)
(-0.00652334 0.0719964 -0.0231162)
(-0.00875832 0.0991171 0.000888501)
(-0.0302643 0.123751 0.0155539)
(-0.0637182 0.125397 0.00166809)
(-0.0908214 0.103072 -0.0376952)
(-0.0996375 0.0754392 -0.0776191)
(-0.0940813 0.0625657 -0.0912058)
(-0.0835622 0.0793576 -0.0696343)
(-0.0784698 0.146901 -0.0112593)
(-0.187828 0.308967 0.173181)
(0.00165094 -0.00790554 -0.0303445)
(-0.00556828 0.0380477 0.0577974)
(-0.0310389 0.0936811 0.0766685)
(-0.0356623 0.121759 0.0612478)
(-0.0199715 0.138809 0.0436458)
(0.00447594 0.159719 0.0405477)
(0.0232978 0.181737 0.0506099)
(0.0260029 0.18938 0.056665)
(0.0163737 0.173687 0.0426482)
(0.0102433 0.143094 0.00858469)
(0.0189642 0.10863 -0.0266508)
(0.0367949 0.0825135 -0.0385235)
(0.0462592 0.0714657 -0.021378)
(0.038316 0.0691866 0.00734059)
(0.0187133 0.067359 0.028501)
(-0.00206445 0.0650022 0.0322114)
(-0.0173533 0.0643759 0.020077)
(-0.0247151 0.0658498 -0.000169965)
(-0.0216622 0.0668523 -0.0178642)
(-0.00694206 0.0682012 -0.0197235)
(0.00991134 0.0784897 0.00501073)
(0.00706161 0.103375 0.047359)
(-0.027961 0.127213 0.0740722)
(-0.079085 0.13102 0.0545136)
(-0.113448 0.113382 -0.00556871)
(-0.112363 0.0912028 -0.0642864)
(-0.0885879 0.0823276 -0.0784388)
(-0.068622 0.09933 -0.03732)
(-0.0758562 0.160009 0.0495215)
(-0.244887 0.301402 0.282911)
(0.0311977 0.00620533 0.00914853)
(0.00472852 0.0207996 0.107529)
(-0.0297839 0.0653277 0.137479)
(-0.0379577 0.0956619 0.123951)
(-0.0212047 0.117235 0.106548)
(0.00549594 0.138707 0.105542)
(0.0244039 0.157854 0.119327)
(0.0214733 0.165057 0.126633)
(0.00229039 0.154312 0.102808)
(-0.00879018 0.133933 0.0482398)
(0.00497897 0.110526 -0.00794709)
(0.0350159 0.0890143 -0.0303289)
(0.0554598 0.0745373 -0.00908937)
(0.0504251 0.0648464 0.0315632)
(0.0258148 0.0567848 0.0621946)
(-0.00285172 0.0527679 0.06787)
(-0.0240541 0.0552964 0.0509316)
(-0.0323892 0.0625487 0.0227425)
(-0.0240233 0.0681809 -0.00115564)
(0.000919753 0.0691266 -0.00154174)
(0.0270306 0.0714724 0.0364457)
(0.0233419 0.084778 0.100312)
(-0.0258506 0.101753 0.140961)
(-0.0952566 0.111132 0.114647)
(-0.136838 0.10944 0.0301212)
(-0.124792 0.102888 -0.0506129)
(-0.0813141 0.0985187 -0.0649136)
(-0.0511438 0.105339 -0.000544219)
(-0.0712811 0.143384 0.118124)
(-0.29725 0.243537 0.397023)
(0.0601199 0.000418702 0.0554262)
(0.014451 -0.028769 0.165863)
(-0.0293338 -0.00170676 0.205515)
(-0.0410051 0.0308619 0.190986)
(-0.023272 0.0579745 0.171936)
(0.00542296 0.0792311 0.171235)
(0.0247699 0.0930888 0.187058)
(0.0171614 0.0991049 0.195791)
(-0.0107922 0.0999788 0.161392)
(-0.0264287 0.103428 0.0831957)
(-0.00765515 0.104842 0.00352847)
(0.0340814 0.09426 -0.0297724)
(0.0649552 0.0727081 -0.00190912)
(0.0625448 0.0469417 0.0546555)
(0.032875 0.0259895 0.0978851)
(-0.00370628 0.0190438 0.106407)
(-0.0308835 0.0282274 0.0832635)
(-0.0402179 0.0469125 0.044427)
(-0.0265185 0.0616329 0.0120331)
(0.00845188 0.0614675 0.0133307)
(0.0433243 0.0469998 0.0673399)
(0.0385024 0.0341938 0.156751)
(-0.0244095 0.035051 0.212914)
(-0.111204 0.0553171 0.177464)
(-0.159399 0.0872798 0.0626131)
(-0.136281 0.11241 -0.0451722)
(-0.0732888 0.113196 -0.0594004)
(-0.0329992 0.0937799 0.0328559)
(-0.0651075 0.0863596 0.186857)
(-0.33744 0.120132 0.502008)