/*--------------------------------*- C++ -*----------------------------------*\
| =========                 |                                                 |
| \\      /  F ield         | OpenFOAM: The Open Source CFD Toolbox           |
|  \\    /   O peration     | Version:  2106                                  |
|   \\  /    A nd           | Website:  www.openfoam.com                      |
|    \\/     M anipulation  |                                                 |
\*---------------------------------------------------------------------------*/
FoamFile
{
    version     2.0;
    format      ascii;
    arch        "LSB;label=32;scalar=64";
    class       volSymmTensorField;
    location    "1051";
    object      epsilon;
}
// * * * * * * * * * * * * * * * * * * * * * * * * * * * * * * * * * * * * * //

dimensions      [0 0 0 0 0 0 0];

internalField   nonuniform List<symmTensor> 
9000
(
(-1782.92 -66.2656 1638.86 -2871.73 -1297.89 8866.38)
(-494.351 -4.42163 1265.95 -1866.6 -801.853 5097.5)
(-145.951 22.0586 454.766 -995.501 -727.55 2546.27)
(78.4467 25.4377 233.516 357.491 -801.059 -1170.54)
(239.833 12.2393 908.453 1184.84 -802.591 -3444.32)
(177.975 -5.35171 1821.39 763.325 -652.495 -2274.61)
(-70.7602 -14.4926 2091.32 -660.999 -393.477 1659.05)
(-302.423 -9.07405 1347.7 -2072.9 -137.123 5554.44)
(-331.48 5.7998 71.6376 -2478.3 -23.509 6639.27)
(-160.867 17.3502 -856.487 -1735.2 -102.699 4539.61)
(55.2292 19.6451 -984.538 -527.468 -272.443 1211.11)
(174.398 13.0836 -474.75 402.393 -398.967 -1302.66)
(152.972 1.42289 184.493 580.516 -423.446 -1732.4)
(53.1473 -6.87179 537.452 150.553 -351.807 -512.711)
(-42.1286 -9.79421 521.095 -486.91 -239.216 1226.97)
(-115.942 -9.54623 253.992 -1035.3 -170.595 2708.15)
(-168.42 -4.32635 -233.695 -1284.13 -211.212 3387.95)
(-131.54 3.67555 -856.443 -993.72 -348.389 2575.93)
(38.4737 7.72834 -1119.86 -118.306 -504.533 144.654)
(221.831 1.88633 -612.502 615.211 -589.898 -1933.24)
(236.193 -12.6128 357.149 474.867 -557.757 -1595.49)
(37.2259 -22.3539 968.338 -690.36 -431.914 1608.47)
(-206.858 -16.4629 609.656 -2032.77 -299.963 5311.67)
(-257.353 2.52145 -422.579 -2500.14 -244.161 6568.91)
(-70.0244 19.9035 -1129.29 -1823.43 -270.308 4631.13)
(133.481 23.9359 -894.159 -865.08 -302.568 1959.37)
(118.872 16.5727 -217.437 -591.661 -260.395 1285.82)
(-83.417 4.61941 -78.476 -928.941 -178.615 2387.4)
(-251.14 -4.2998 -740.134 -1028.64 -209.307 2833.22)
(-444.391 13.7914 -819.155 -580.562 -538.029 1839.34)
(-1798.58 -93.3603 1382.97 -1944.94 -4136.68 8226.66)
(-409.003 72.2281 1149.46 -1231.17 -2582.14 4247.03)
(-107.607 145.362 621.951 -676.902 -2118.41 2117.36)
(59.216 151.71 442.054 133.041 -1870.95 -678.551)
(185.143 49.9667 914.677 643.768 -1604.14 -2442.3)
(133.956 -83.8605 1577.37 398.761 -1367.1 -1584.8)
(-69.8784 -145.729 1736.07 -460.36 -1188.67 1409.07)
(-256.343 -91.3505 1107.68 -1302.45 -1006.5 4322.5)
(-274.302 29.2809 94.0339 -1541.64 -855.326 5089.33)
(-131.327 120.697 -627.086 -1100.22 -818.267 3498.03)
(44.9828 134.103 -724.367 -366.203 -849.274 982.815)
(139.579 77.2282 -333.018 197.854 -862.692 -892.154)
(119.024 -5.22888 158.515 309.242 -865.367 -1188.77)
(37.9893 -58.0767 402.771 55.8046 -823.391 -278.11)
(-35.0183 -71.0813 375.192 -330.978 -750.312 1011.03)
(-91.9338 -57.4288 179.563 -668.322 -757.922 2129.84)
(-138.755 -13.6177 -183.183 -828.297 -940.676 2713.53)
(-115.033 52.1693 -689.197 -670.256 -1196.92 2209.73)
(24.5614 82.9985 -936.286 -138.596 -1295.37 347.552)
(180.616 28.7084 -558.088 306.126 -1268.59 -1293.1)
(196.219 -83.5176 205.211 214.459 -1236.04 -1067.52)
(31.5021 -156.386 694.408 -491.59 -1298.99 1376.04)
(-172.648 -113.504 410.076 -1306.27 -1406.09 4229.6)
(-214.047 15.8255 -414.063 -1586.06 -1418.28 5165.9)
(-55.4406 117.536 -970.428 -1179.35 -1267.86 3639.77)
(115.197 112.86 -767.528 -600.129 -1039.88 1571.77)
(101.166 43.0628 -216.449 -431.301 -849.675 1090.62)
(-68.963 -3.68581 -105.49 -623.562 -754.262 1995.41)
(-209.433 -0.183027 -625.968 -667.733 -858.565 2361.79)
(-440.076 46.5354 -668.298 -406.982 -1491.91 1750.61)
(-1357.12 -121.872 1100.73 -952.63 -5364.89 5707.26)
(-289.715 128.691 1083.63 -536.436 -3280.29 2404.15)
(-64.8875 209.731 814.776 -261.706 -2614.92 869.164)
(38.2506 216.464 678.497 120.248 -2178.81 -1005.71)
(124.043 71.1712 949.763 367.615 -1763.47 -2188.46)
(84.1104 -124.21 1352.98 236.955 -1531.18 -1514.56)
(-69.463 -212.67 1396.81 -206.69 -1493.38 690.17)
(-206.065 -130.762 885.682 -633.422 -1440.08 2798.45)
(-212.301 43.3759 129.32 -756.928 -1308.24 3346.47)
(-99.3182 175.177 -391.28 -540.199 -1184.9 2215.25)
(33.811 194.527 -457.757 -163.648 -1075.13 424.272)
(101.058 110.99 -184.371 121.222 -981.749 -878.973)
(81.1346 -7.64817 138.492 177.424 -962.615 -1054.92)
(20.3957 -83.1652 274.265 50.972 -959.165 -399.208)
(-29.4509 -102.681 230.458 -150.387 -951.026 514.646)
(-68.2978 -85.0672 90.8841 -325.75 -1029.55 1302.8)
(-106.622 -24.4847 -160.569 -404.484 -1278.92 1717.42)
(-94.4951 74.1845 -541.773 -324.799 -1558.58 1365.07)
(11.5411 124.139 -753.481 -47.185 -1564.47 -10.3417)
(134.937 44.4946 -499.271 178.402 -1443.25 -1232.56)
(150.277 -120.754 48.4791 124.433 -1426.87 -1094.45)
(24.7151 -228.149 405.08 -232.065 -1638.58 641.991)
(-132.175 -164.716 199.536 -640.148 -1924.29 2678.37)
(-161.59 25.176 -396.155 -774.922 -1990.22 3320.93)
(-35.4791 172.462 -781.817 -575.984 -1736.44 2220.39)
(96.0519 162.877 -602.189 -297.817 -1358.57 787.759)
(78.2471 59.1842 -182.481 -229.443 -1107.34 559.557)
(-61.0801 -6.65034 -122.283 -333.298 -1033.91 1331.08)
(-161.826 0.125757 -547.023 -336.199 -1158.04 1588.06)
(-282.839 69.7963 -526.249 -172.08 -1845.82 989.518)
(-763.313 -136.076 793.454 34.9371 -5568.2 2624.87)
(-151.608 150.083 1025.64 114.482 -3328.83 361.534)
(-21.8398 223.375 999.932 160.918 -2608.21 -544.392)
(17.113 230.079 909.873 251.492 -2118.52 -1585.44)
(61.1164 73.8259 989.518 306.683 -1663.47 -2212.94)
(32.4457 -140.644 1137.89 233.436 -1459.81 -1665.12)
(-68.6686 -235.949 1070.87 51.1265 -1512.11 -137.811)
(-154.134 -142.78 677.226 -120.039 -1541.97 1293.53)
(-148.978 48.875 169.026 -178.441 -1436.68 1673.86)
(-66.6963 194.063 -158.555 -104.169 -1275.57 943.367)
(22.2284 215.402 -194.229 40.5474 -1089.44 -209.277)
(61.2535 122.137 -36.0932 143.049 -943.018 -1009.22)
(42.0569 -8.08584 122.47 160.379 -913.544 -1076.03)
(1.91681 -90.7155 152.857 109.257 -933.683 -631.348)
(-25.1351 -112.965 90.5677 24.1912 -969.328 -37.9857)
(-45.9001 -95.0654 -1.6134 -42.7426 -1085.92 453.938)
(-73.7816 -30.2218 -151.571 -52.742 -1348.01 685.234)
(-71.346 81.0385 -406.113 1.24989 -1609.43 411.126)
(-0.242145 139.801 -573.093 115.93 -1558.03 -539.139)
(87.4643 50.9975 -438.299 194.855 -1394.12 -1380.51)
(101.558 -133.053 -105.15 164.993 -1394.16 -1317.46)
(17.42 -252.103 117.842 38.2404 -1674.82 -211)
(-88.7024 -180.653 -8.67076 -97.478 -2036.06 1086.82)
(-104.87 30.3912 -373.407 -136.297 -2122.02 1469.87)
(-13.1671 192.157 -584.822 -76.9813 -1832.88 759.182)
(76.3553 179.156 -424.691 -7.7223 -1411.14 -84.2741)
(52.7669 63.4463 -134.45 -20.4115 -1158.35 -61.0218)
(-56.6036 -6.81645 -131.815 -82.4181 -1112.49 615.916)
(-110.724 4.09018 -478.92 -58.5594 -1228.45 763.003)
(-81.5705 82.0619 -384.456 88.187 -1857.95 38.3104)
(-161.129 -136.34 482.356 825.142 -5109.71 -282.136)
(-12.6193 135.755 952.954 597.279 -2990.19 -1460.83)
(18.8462 195.898 1148.22 473.873 -2327.94 -1795.72)
(-2.00776 203.236 1104.64 381.293 -1894.42 -2149.89)
(2.3366 60.9913 1017.34 311.025 -1483.02 -2309.66)
(-15.9023 -138.432 937.808 268.441 -1303.27 -1858.58)
(-66.9871 -225.236 773.997 247.441 -1365.22 -891.421)
(-104.326 -134.136 490.472 231.333 -1404.55 -12.6547)
(-88.9448 47.6164 206.916 211.752 -1313.28 234.682)
(-35.8155 185.309 54.2806 200.493 -1160.6 -166.172)
(11.0984 205.166 47.3469 199.408 -975.104 -784.03)
(23.3225 115.451 100.236 186.639 -837.065 -1164.19)
(5.03288 -7.48503 110.035 176.62 -811.994 -1136.97)
(-15.7076 -85.1109 45.1952 168.189 -835.967 -860.875)
(-21.721 -106.493 -35.0203 155.442 -880.663 -532.786)
(-25.6484 -90.1755 -86.9142 159.5 -997.107 -291.699)
(-42.6765 -29.6947 -147.594 198.857 -1235.06 -223.989)
(-48.1775 76.9555 -284.764 246.273 -1464.61 -450.098)
(-10.5962 134.379 -406.76 259.25 -1408.8 -1046.32)
(42.0541 49.3565 -380.285 245.246 -1255.84 -1567.33)
(54.6064 -125.982 -243.612 231.695 -1265.73 -1569.62)
(10.4543 -238.174 -142.654 249.027 -1535.46 -989.218)
(-46.5295 -168.696 -196.359 285.627 -1872.81 -309.373)
(-49.9182 32.0724 -349.211 307.403 -1944.64 -140.345)
(8.46305 183.605 -400.892 280.788 -1672.79 -526.165)
(57.4306 168.239 -258.094 217.077 -1291.25 -876.704)
(27.9835 57.6224 -84.6568 146.848 -1077.66 -637.038)
(-53.0553 -5.422 -134.921 100.742 -1056.03 -28.2429)
(-60.2051 11.4412 -412.666 138.312 -1150.45 24.4832)
(118.578 84.9203 -247.081 294.733 -1678.04 -852.858)
(364.341 -127.012 190.917 1340.33 -4239.16 -2628.09)
(112.756 95.8408 857.492 877.795 -2438.87 -2866.27)
(55.0188 141.891 1241.56 644.23 -1912.96 -2743.8)
(-17.3264 150.81 1241.68 455.161 -1598.68 -2584.25)
(-47.2554 38.3411 1023.27 318.021 -1278.01 -2392.63)
(-56.6022 -123.553 760.05 292.662 -1113.98 -2019.82)
(-64.1587 -191.902 520.93 361.505 -1128.38 -1487.84)
(-59.9764 -111.814 333.662 431.418 -1124.39 -1036.13)
(-36.1942 42.3279 239.315 435.261 -1035.03 -892.292)
(-8.76009 158.545 233.951 379.593 -919.079 -1038.5)
(1.17218 174.195 251.482 296.952 -786.505 -1237.02)
(-10.0221 96.7461 215.326 219.327 -698.242 -1290.24)
(-27.2326 -6.65813 100.855 191.568 -689.141 -1187.71)
(-31.0174 -71.1426 -43.1687 204.292 -704.764 -1039.58)
(-18.8872 -88.8032 -138.434 232.585 -733.027 -918.804)
(-8.26534 -74.9755 -156.812 278.635 -822.102 -875.242)
(-15.4808 -24.3105 -143.201 346.88 -1014.56 -934.692)
(-27.4634 65.8348 -181.538 391.64 -1209.06 -1122.42)
(-19.4249 114.526 -265.099 348.771 -1184.78 -1444.64)
(2.13395 41.975 -329.751 283.856 -1076.97 -1718.85)
(13.4033 -106.335 -357.755 280.764 -1090.35 -1776.3)
(4.55441 -199.47 -357.914 377.534 -1297.59 -1604.6)
(-9.30732 -138.534 -349.968 508.802 -1547.57 -1401.2)
(-1.76916 31.4068 -325.83 563.986 -1583.86 -1394.7)
(27.0495 156.513 -245.407 492.817 -1359.13 -1531.4)
(40.5627 139.207 -118.279 357.941 -1066.43 -1506.89)
(6.50357 44.2511 -41.3969 253.053 -917.361 -1101.51)
(-48.9054 -4.24364 -132.995 209.064 -919.722 -543.131)
(-13.6486 19.8949 -346.396 249.94 -987.927 -562.009)
(293.146 81.1403 -120.41 417.715 -1393.63 -1565.86)
(767.693 -111.786 -61.4485 1578.04 -3165.64 -4251.83)
(215.077 43.2307 741.874 971.982 -1811.3 -3796.58)
(85.032 76.4436 1274.71 683.991 -1463.48 -3356.43)
(-27.9921 87.7166 1313.13 463.164 -1288.35 -2853.22)
(-84.7963 11.8198 1003.44 304.854 -1073.24 -2428.69)
(-87.1321 -102.058 608.475 289.443 -919.117 -2120.83)
(-60.0768 -147.224 318.875 396.971 -859.944 -1903.77)
(-23.0743 -82.4531 210.897 505.066 -787.961 -1761.04)
(6.88442 35.6532 264.987 522.711 -692.484 -1694.33)
(13.1438 123.258 374.445 451.463 -623.435 -1655.92)
(-7.14596 132.937 410.551 334.859 -567.029 -1548.48)
(-37.1754 71.8912 304.492 229.825 -546.812 -1365.76)
(-53.1476 -6.16524 94.3052 192.664 -560.561 -1208.23)
(-43.1079 -53.3676 -109.969 212.631 -563.738 -1151.99)
(-16.368 -65.4929 -215.908 259.211 -563.222 -1182.32)
(5.88242 -54.4337 -207.156 324.783 -611.323 -1281.83)
(6.47219 -16.3115 -135.495 404.311 -750.039 -1427.62)
(-10.8223 51.3009 -98.2197 445.204 -911.431 -1578.72)
(-26.7432 87.44 -153.449 379.752 -932.921 -1704.82)
(-30.2239 31.5818 -289.223 295.176 -883.728 -1805.86)
(-19.6612 -80.8056 -443.68 297.57 -896.607 -1907.79)
(0.170033 -149.109 -519.779 426.342 -1019.75 -2030.28)
(20.82 -99.8237 -463.442 594.409 -1156.54 -2163.4)
(36.5968 29.5869 -304.472 663.01 -1148.69 -2269.47)
(41.1835 120.56 -125.686 576.935 -981.253 -2229.93)
(26.4293 101.091 -13.2147 417.233 -794.392 -1946.49)
(-10.2876 25.9556 -10.0306 297.44 -721.568 -1430.42)
(-43.4435 -4.90872 -128.712 249.399 -751.311 -912.582)
(26.8123 27.24 -281.853 285.88 -794.654 -978.752)
(430.478 73.3185 -9.58578 456.117 -1070.81 -2059.49)
(1032.72 -93.2117 -261.542 1577.98 -2063.44 -5140.94)
(289.624 -10.7917 615.079 920.998 -1210.55 -4280.26)
(107.884 11.7943 1252.67 626.02 -1050.43 -3664.54)
(-34.0579 25.7694 1322.05 416.457 -1004.75 -2965.31)
(-109.657 -13.7979 958.826 267.483 -887.758 -2411.34)
(-106.826 -78.824 483.223 257.779 -740.05 -2158.38)
(-54.7365 -100.274 167.745 370.032 -605.121 -2152.21)
(5.81435 -51.3333 122.149 484.683 -461.47 -2216.07)
(39.5791 29.6057 284.524 509.887 -354.821 -2202.8)
(29.4077 87.0735 476.26 441.914 -330.039 -2039.05)
(-13.8051 89.9825 524.335 324.063 -350.885 -1725.49)
(-57.6876 45.7899 367.28 217.739 -399.566 -1387.3)
(-72.2568 -6.24928 89.5878 178.037 -438.645 -1194.48)
(-51.6545 -35.3601 -155.929 196.82 -430.558 -1200.29)
(-13.9711 -41.1871 -267.532 245.871 -399.375 -1331.86)
(16.7761 -32.7515 -237.425 314.619 -403.885 -1524.7)
(22.7577 -7.74214 -123.629 392.604 -490.01 -1719.39)
(1.12185 36.2064 -34.3473 428.19 -622.848 -1834.65)
(-32.6597 59.055 -72.0358 361.809 -688.902 -1831.3)
(-54.4086 20.4378 -259.266 278.224 -696.985 -1823.23)
(-43.8574 -54.7741 -502.066 282.074 -707.994 -1959.46)
(-2.544 -97.5761 -629.066 410.548 -747.403 -2276.07)
(43.2286 -60.2886 -537.326 576.058 -773.134 -2623.47)
(64.2647 27.5346 -285.498 644.662 -721.283 -2798.67)
(50.3524 83.4405 -42.1396 562.922 -608.069 -2645.13)
(15.035 61.1587 55.7078 409.231 -522.314 -2202.7)
(-22.1614 5.13209 6.42261 289.938 -526.464 -1627.88)
(-36.522 -8.36805 -125.569 236.606 -588.385 -1147.88)
(60.4067 32.0423 -222.217 263.381 -612.388 -1239.42)
(528.023 63.8648 82.3733 424.171 -762.409 -2340.46)
(1164.08 -73.2603 -403.261 1399.03 -1064.31 -5376.95)
(335.582 -58.1958 487.944 774.171 -703.295 -4394.19)
(123.258 -43.9733 1186.56 508.485 -716.08 -3730.56)
(-36.1971 -27.5564 1278.27 333.949 -774.642 -2951.63)
(-122.872 -35.473 893.465 210.669 -736.499 -2349.03)
(-116.429 -57.0885 381.905 204.018 -593.28 -2143.24)
(-48.2108 -57.1234 62.4173 301.431 -394.398 -2266.17)
(27.2058 -22.0526 64.4831 403.756 -187.83 -2454.09)
(62.4761 25.4372 299.68 432.118 -67.1077 -2472.78)
(40.2285 55.1228 544.266 378.396 -76.8331 -2229.84)
(-19.0103 51.2764 597.809 279.173 -162.098 -1790.45)
(-72.0025 21.9216 406.235 187.928 -269.66 -1362.13)
(-84.9823 -6.90384 85.9256 150.847 -332.934 -1151.47)
(-56.7991 -19.469 -183.734 163.832 -317.575 -1195.99)
(-11.5804 -19.105 -296.09 205.404 -260.631 -1388.01)
(24.6634 -12.8674 -249.609 266.639 -226.269 -1632.69)
(33.6663 0.0174751 -108.067 335.204 -266.465 -1845.99)
(8.53478 22.4627 12.1278 365.355 -375.785 -1927.85)
(-37.3488 33.2896 -17.6817 310.047 -477.303 -1846.85)
(-70.9368 10.0171 -239.116 238.836 -533.022 -1779.67)
(-59.7172 -31.8435 -536.604 241.15 -543.01 -1941.38)
(-3.66042 -51.8111 -692.516 349.816 -512.205 -2372.13)
(58.4355 -25.0525 -576.616 489.708 -445.36 -2837.44)
(81.8824 25.8538 -268.66 550.181 -354.774 -3046.54)
(54.7145 50.1992 9.36288 483.64 -285.317 -2827.45)
(5.89169 24.3222 91.5399 353.473 -283.837 -2304.13)
(-29.7067 -16.2335 6.7687 245.321 -358.176 -1714.82)
(-28.3073 -14.8569 -127.112 188.341 -456.207 -1275.78)
(87.587 33.6308 -170.472 202.357 -468.921 -1376.02)
(589.62 54.716 155.331 342.944 -506.451 -2444.42)
(1180.21 -53.6169 -487.555 1103.86 -255.365 -5093.15)
(355.143 -94.3418 369.744 577.664 -323.124 -4234.33)
(131.473 -86.8519 1089.65 365.553 -477.764 -3626.17)
(-35.3743 -68.8158 1194.65 235.059 -610.703 -2852.06)
(-126.406 -51.8147 812.829 142.873 -628.791 -2258.23)
(-117.517 -38.5533 300.899 137.446 -489.184 -2093.55)
(-40.634 -20.9987 -4.82055 211.364 -243.878 -2286.44)
(42.2655 3.3411 33.4596 292.03 10.9325 -2536.05)
(76.9651 23.6919 312.746 320.168 146.725 -2567.41)
(46.2538 30.1997 585.687 285.784 115.417 -2278.55)
(-23.1077 20.1905 638.785 214.961 -14.7199 -1772.66)
(-81.1144 2.35217 425.638 147.241 -165.489 -1303.16)
(-92.2881 -7.97593 82.7116 116.161 -249.321 -1088.75)
(-58.9898 -6.93331 -197.014 121.264 -231.899 -1154.69)
(-9.14382 -1.08042 -305.827 150.144 -157.705 -1376.25)
(29.9632 3.54875 -247.046 197.977 -93.2309 -1640.85)
(39.9355 6.28712 -89.8655 253.344 -96.5646 -1850.55)
(12.0568 11.1207 44.0836 279.048 -186.474 -1903.14)
(-41.0274 12.1397 14.4616 239.896 -311.683 -1781.99)
(-80.9977 1.03125 -227.375 185.527 -402.481 -1691.3)
(-68.5217 -13.9593 -552.538 184.303 -413.731 -1871.54)
(-3.39035 -15.435 -719.783 263.6 -332.505 -2357.33)
(67.6368 3.21051 -588.447 367.66 -198.445 -2871.32)
(91.0277 24.8365 -253.336 415.698 -77.0608 -3087.36)
(54.835 23.4318 35.1584 368.986 -37.7197 -2837.27)
(-1.73647 -6.7227 99.6153 270.016 -98.9006 -2289.35)
(-33.9552 -36.6737 -8.87679 179.054 -232.355 -1720.15)
(-19.1143 -24.0869 -136.413 121.345 -368.193 -1329.04)
(109.64 31.747 -129.047 121.71 -378.893 -1428.12)
(623.024 46.8639 211.535 235.162 -325.267 -2421.98)
(1107.3 -35.6248 -521.297 750.015 316.644 -4443.73)
(352.584 -117.386 266.287 368.444 -78.3708 -3896.12)
(133.361 -116.015 974.294 223.273 -334.614 -3418.79)
(-32.562 -97.5422 1084.09 136.367 -514.094 -2706.54)
(-122.548 -62.6807 722.575 73.5269 -567.869 -2158.71)
(-111.995 -23.7803 236.366 67.8922 -431.84 -2030.24)
(-32.1803 7.07223 -42.2211 116.74 -157.945 -2253.2)
(52.4144 23.9998 24.1888 172.945 128.819 -2520.19)
(84.794 24.3598 326.002 198.428 278.997 -2547.81)
(48.3661 13.2477 608.449 184.285 239.813 -2234.87)
(-26.4851 -1.99268 656.048 144.316 85.8333 -1702.49)
(-86.2584 -12.0334 430.476 102.627 -90.6568 -1225.3)
(-95.3865 -9.26051 79.5779 79.2061 -190.103 -1017.29)
(-58.8331 1.85332 -199.594 76.047 -176.098 -1092.76)
(-6.65326 12.1791 -301.453 90.5157 -94.3218 -1322.25)
(33.1771 15.8515 -233.513 122.764 -10.0017 -1584.17)
(42.5043 10.9053 -70.1796 164.134 14.0619 -1775.56)
(12.5235 2.56556 64.6062 186.799 -59.1165 -1803.75)
(-43.9331 -3.82989 29.5901 164.539 -196.315 -1667.99)
(-86.0576 -6.35956 -222.531 127.063 -310.166 -1577.08)
(-71.8524 -1.77122 -555.492 121.249 -325.715 -1770.95)
(-1.99261 10.4744 -721.085 168.75 -215.501 -2271.74)
(72.3005 23.714 -580.342 235.477 -40.1287 -2788.89)
(93.6478 24.5011 -238.826 269.653 103.146 -2992.84)
(51.4621 3.8838 42.064 243.009 126.397 -2733.82)
(-8.62779 -31.0103 85.9179 176.344 24.3528 -2198.63)
(-36.0749 -55.2503 -39.5683 104.87 -155.376 -1674.47)
(-9.35633 -35.4762 -155.885 49.3707 -328.328 -1339.71)
(128.087 26.3419 -99.9781 37.2894 -346.239 -1435.03)
(637.643 40.1767 253.738 122.098 -226.558 -2328.22)
(974.641 -20.141 -515.469 385.93 638.351 -3582.99)
(333.352 -127.449 179.393 172.957 39.6919 -3464.05)
(130.119 -132.645 850.253 99.1573 -274.428 -3165.01)
(-28.5568 -115.084 957.797 50.2993 -477.713 -2549.98)
(-113.484 -68.7121 627.763 11.4393 -551.228 -2070.09)
(-101.734 -12.6494 184.843 4.43078 -419.55 -1973.87)
(-23.0463 27.4476 -57.3359 30.4519 -132.552 -2201.51)
(59.0407 39.8716 31.9506 63.4356 170.919 -2456.55)
(87.7406 27.0639 341.387 84.7634 333.616 -2467.45)
(47.5151 3.88468 619.985 88.7984 299.361 -2142.48)
(-29.4987 -15.493 658.076 77.3161 140.951 -1607.62)
(-88.6789 -21.2234 425.685 60.089 -44.697 -1142.86)
(-95.5197 -10.5613 76.3753 44.5568 -154.543 -947.611)
(-56.9764 7.07293 -195.019 33.9071 -149.069 -1025.36)
(-4.12663 20.761 -287.459 34.6013 -68.9213 -1249.07)
(34.8174 24.1075 -212.629 51.6627 25.2248 -1493.84)
(42.3328 14.0127 -50.0171 80.1435 68.0204 -1658.48)
(10.7725 -3.27148 76.6042 101.043 10.1427 -1666.92)
(-46.3012 -14.9531 32.4259 93.9148 -128.729 -1532.65)
(-87.5738 -12.2986 -223.249 71.1034 -255.685 -1455.63)
(-71.2792 4.98553 -550.694 60.5754 -278.837 -1660.19)
(0.279957 26.5041 -705.796 78.5885 -159.739 -2151.91)
(73.871 36.8818 -559.191 111.615 33.972 -2645.42)
(91.6691 24.6695 -224.572 132.552 190.525 -2825.33)
(45.3759 -8.91724 36.3141 123.447 210.228 -2569.28)
(-15.4689 -48.7208 56.1125 86.0946 86.9669 -2068.9)
(-37.1672 -71.4817 -83.9246 33.723 -126.385 -1606.02)
(0.485068 -48.2987 -187.232 -17.3044 -334.004 -1335.66)
(144.123 17.7698 -84.9067 -38.5389 -366.915 -1431.19)
(642.634 33.9911 283.917 22.0037 -205.437 -2215.19)
(811.062 -7.46146 -483.174 49.791 722.632 -2651.9)
(303.25 -125.825 107.452 8.38678 50.3655 -3007.38)
(123.12 -138.892 724.226 3.47132 -278.92 -2908.47)
(-23.9128 -123.621 824.584 -14.8481 -489.021 -2409.92)
(-101.073 -70.9202 532.488 -36.1018 -571.408 -2009.33)
(-88.3657 -4.7107 143.442 -45.2341 -445.618 -1942.4)
(-13.4381 41.1644 -56.5152 -38.0767 -157.923 -2159.71)
(63.3417 51.3373 52.5203 -24.9941 149.515 -2384.97)
(87.4056 31.2017 360.369 -8.69273 322.321 -2369.56)
(44.6014 0.901675 626.571 9.42786 303.508 -2036.73)
(-32.4241 -21.4906 652.192 21.1584 156.807 -1510.96)
(-89.4781 -25.7823 415.676 24.2767 -24.0351 -1068.11)
(-93.8148 -11.7148 73.1286 15.8662 -139.537 -888.744)
(-54.0282 9.26506 -186.283 -0.768308 -146.862 -965.288)
(-1.59741 25.2489 -267.716 -11.7576 -76.2032 -1175.74)
(35.3517 28.8022 -187.528 -7.89051 19.0606 -1395.44)
(40.2904 15.8715 -30.165 9.79718 73.4332 -1529.7)
(7.53569 -6.738 82.6157 29.7542 30.2568 -1522.24)
(-48.3447 -22.0047 26.8659 34.7715 -102.065 -1398.47)
(-86.8203 -17.0172 -228.47 23.6555 -234.576 -1343.08)
(-68.1807 7.14837 -542.555 9.15935 -268.45 -1557.23)
(3.19721 34.18 -681.774 2.88858 -157.38 -2028.45)
(73.5908 43.7801 -530.796 8.46636 36.0824 -2485.27)
(86.7735 25.0565 -210.283 18.0005 198.548 -2635.04)
(37.3042 -16.1287 23.0254 22.3937 224.602 -2386.26)
(-22.7843 -60.7001 15.0525 9.02082 96.4496 -1931.07)
(-38.1509 -85.2227 -140.412 -26.3684 -139.342 -1538.56)
(9.93897 -61.7305 -231.485 -71.3465 -378.28 -1339.39)
(158.488 7.00901 -84.9346 -96.5438 -431.241 -1444.14)
(645.639 27.998 303.367 -50.4751 -246.708 -2126.64)
(642.337 2.67386 -437.717 -230.345 602.125 -1769.59)
(267.751 -114.371 46.6504 -115.382 -21.2852 -2578.63)
(113.747 -137.144 600.177 -58.9866 -327.2 -2679.86)
(-18.9557 -125.479 690.825 -54.2147 -532.379 -2305.6)
(-86.7715 -70.3742 439.747 -63.6351 -617.159 -1988.82)
(-73.2131 0.617702 109.834 -74.9521 -499.269 -1949.58)
(-3.56342 49.4763 -44.8401 -82.1084 -220.26 -2148.79)
(66.2614 58.9426 82.3079 -84.9466 81.3802 -2334.7)
(85.113 36.0312 383.858 -74.3235 261.684 -2286.29)
(40.4034 2.63416 633.023 -47.4605 265.559 -1944.06)
(-35.4383 -21.7111 644.15 -19.513 142.603 -1429.76)
(-89.5271 -26.6056 404.063 -1.54056 -22.9187 -1010.51)
(-91.1992 -12.581 70.0069 -4.16413 -140.214 -847.638)
(-50.5109 9.16966 -175.673 -24.8286 -163.464 -922.303)
(0.886232 26.4881 -245.282 -44.621 -108.37 -1116.6)
(35.1651 30.6168 -160.719 -51.1452 -18.8546 -1308.18)
(37.0993 16.7415 -11.2066 -41.8529 41.7002 -1411.85)
(3.4046 -8.33386 84.6884 -22.5902 13.0526 -1391.35)
(-50.2321 -25.8778 15.9284 -8.74233 -106.9 -1282.09)
(-84.8092 -20.694 -237.366 -11.0372 -239.517 -1251.94)
(-63.6665 5.88698 -534.47 -27.9334 -286.554 -1476.14)
(6.54971 35.476 -655.063 -51.6721 -196.213 -1924.66)
(72.4134 45.7414 -499.719 -66.2587 -16.8031 -2341.32)
(80.2961 25.3207 -195.965 -65.8033 145.894 -2459.18)
(27.881 -19.2343 6.01019 -52.6612 185.145 -2217)
(-30.9077 -68.1152 -33.4237 -48.5797 64.4492 -1808.85)
(-39.7035 -96.5165 -207.528 -69.9876 -184.734 -1490.36)
(18.6319 -74.8782 -289.067 -107.65 -451.3 -1367.77)
(171.633 -4.44739 -100.48 -130.188 -525.653 -1493.89)
(652.044 22.4228 313.306 -84.5538 -327.202 -2094.08)
(489.395 10.9606 -390.862 -435.868 323.279 -1028.08)
(231.483 -95.081 -7.62715 -193.964 -147.828 -2213.73)
(103.22 -129.571 479.988 -87.1861 -398.1 -2497.67)
(-13.8428 -122.731 560.715 -65.5933 -590.776 -2247.8)
(-71.638 -67.9914 351.507 -67.4815 -674.722 -2015.32)
(-57.2847 3.96084 82.1763 -80.193 -566.611 -2003.65)
(6.37119 53.6104 -26.2462 -97.087 -302.779 -2182.12)
(68.4772 63.227 118.355 -112.06 -14.002 -2324.64)
(81.8699 40.7005 412.138 -107.936 170.929 -2238.78)
(35.5455 7.17296 642.594 -78.3694 201.067 -1882.17)
(-38.6101 -18.1281 638.006 -42.1135 109.233 -1375.57)
(-89.4227 -24.7368 393.562 -15.3448 -34.2035 -976.4)
(-88.3582 -13.021 67.3178 -13.7359 -150.485 -828.809)
(-46.8416 7.62121 -164.713 -36.2181 -191.487 -902.716)
(3.25634 25.4198 -222.359 -61.5795 -156.071 -1081.08)
(34.5364 30.2775 -134.06 -75.4466 -77.1769 -1244.85)
(33.3111 16.8185 6.42938 -72.3391 -14.1981 -1319.83)
(-1.1638 -8.62844 84.3083 -54.0289 -28.4589 -1288.3)
(-52.066 -27.4151 1.83466 -34.5238 -132.431 -1194.51)
(-82.2659 -23.3787 -249.219 -30.3572 -261.383 -1190.54)
(-58.5588 2.5648 -528.702 -47.3509 -322.855 -1426.36)
(10.1351 32.5194 -629.843 -80.998 -261.31 -1855.96)
(70.968 44.1401 -469.291 -108.323 -105.055 -2235.24)
(73.1922 25.0826 -181.929 -114.701 53.8452 -2322.32)
(17.6355 -19.8445 -12.2696 -97.7798 110.105 -2083.4)
(-39.9724 -72.2403 -86.5137 -83.2416 4.93348 -1718.58)
(-42.2444 -105.448 -283.854 -93.8754 -250.857 -1474.01)
(26.3118 -86.7818 -359.862 -122.801 -541.138 -1432.03)
(183.775 -14.9224 -131.35 -135.253 -633.954 -1592.46)
(664.411 17.5605 314.922 -73.6097 -418.277 -2133.96)
(367.208 18.3303 -351.55 -556.906 -59.1381 -489.306)
(197.891 -69.8827 -59.5371 -226.964 -301.819 -1932.87)
(92.4731 -117.904 364.239 -82.6193 -471.618 -2369.26)
(-8.63538 -116.976 436.716 -48.7701 -647.039 -2239.11)
(-56.3935 -64.4163 268.913 -45.6059 -728.911 -2089.39)
(-41.3151 5.94933 59.0725 -58.1237 -631.575 -2106.41)
(16.1564 54.6623 -3.68176 -80.4285 -386.612 -2264.81)
(70.404 64.619 158.204 -104.34 -115.681 -2363.54)
(78.3569 44.2484 444.796 -107.912 70.4362 -2237.6)
(30.4997 12.4869 656.908 -82.0218 126.681 -1860.31)
(-41.8897 -12.772 636.125 -45.6652 68.3382 -1354.42)
(-89.4744 -21.2444 385.99 -16.225 -50.0031 -968.901)
(-85.7223 -12.8775 65.5088 -11.907 -163.511 -834.121)
(-43.3333 5.4814 -154.181 -33.8481 -222.734 -909.221)
(5.41777 22.9794 -200.328 -61.4597 -209.102 -1073.71)
(33.6285 28.4556 -108.812 -79.7463 -143.801 -1212.03)
(29.3057 16.2076 22.4019 -81.0819 -80.8756 -1261.38)
(-5.82615 -8.2114 82.4064 -64.378 -81.204 -1220.27)
(-53.8595 -27.3428 -13.8681 -42.055 -167.343 -1141.3)
(-79.6264 -24.9599 -263.273 -33.0998 -290.102 -1162.89)
(-53.4081 -1.34531 -526.315 -47.315 -365.685 -1412.3)
(13.7367 27.4204 -608.526 -83.1228 -336.299 -1829.83)
(69.5536 40.2658 -441.726 -116.083 -207.883 -2178)
(66.0384 23.9149 -168.794 -127.473 -55.4826 -2237.23)
(6.99653 -19.5962 -30.6738 -111.783 18.7206 -1997.41)
(-49.8984 -74.3281 -142.4 -93.735 -67.1681 -1669.52)
(-45.9293 -112.01 -367.988 -96.4907 -324.846 -1496.38)
(32.8096 -96.3795 -443.254 -114.738 -634.415 -1537.49)
(194.755 -22.8444 -177.169 -109.541 -738.232 -1743.42)
(681.995 13.3004 308.533 -15.4915 -488.458 -2245.68)
(284.307 25.7474 -325.199 -591.638 -487.252 -184.227)
(169.104 -40.565 -111.767 -216.997 -457.306 -1741.83)
(82.0846 -103.355 253.004 -48.4944 -529.746 -2291.92)
(-3.36666 -109.261 320.081 -5.11749 -684.588 -2274.22)
(-41.4987 -59.9868 192.555 2.37803 -763.864 -2204.94)
(-25.8217 7.20332 39.5653 -7.7841 -676.828 -2252.27)
(25.5682 53.5631 20.7181 -31.6021 -451.813 -2393.02)
(72.2028 63.3876 199.707 -61.8852 -202.229 -2450.04)
(74.9379 45.6142 480.643 -74.7165 -19.283 -2283.29)
(25.605 16.5146 675.903 -58.94 59.1447 -1879.63)
(-45.0949 -7.62976 639.236 -30.5063 31.6111 -1367.12)
(-89.7056 -17.1522 382.317 -4.28317 -62.2458 -987.88)
(-83.4726 -11.9609 65.1822 1.41987 -172.152 -862.622)
(-40.2056 3.60725 -144.142 -17.5358 -248.654 -940.773)
(7.23753 20.0428 -179.823 -44.1675 -256.953 -1094.09)
(32.4851 25.7081 -85.746 -64.294 -206.538 -1210.31)
(25.3023 14.9041 36.3707 -68.9068 -145.282 -1237.73)
(-10.3259 -7.66388 79.4118 -54.7911 -132.699 -1188.39)
(-55.517 -26.2458 -30.1745 -32.0591 -200.524 -1123.02)
(-77.0458 -25.1729 -278.605 -19.304 -315.342 -1168.73)
(-48.527 -4.32614 -527.141 -27.5377 -402.8 -1433.08)
(17.0982 22.1925 -591.897 -57.9298 -404.332 -1845.83)
(68.1445 35.2593 -418.271 -89.9728 -304.392 -2170.34)
(59.0499 21.3106 -157.515 -105.124 -160.293 -2205.82)
(-3.69031 -20.1031 -49.3312 -95.7222 -70.049 -1961.72)
(-60.3722 -75.5261 -200.157 -80.6329 -136.975 -1664.36)
(-50.6421 -116.004 -458.371 -77.7761 -393.478 -1558.75)
(37.973 -102.448 -537.964 -82.6668 -716.869 -1683.27)
(203.78 -26.8128 -237.641 -52.7822 -819.674 -1941.12)
(700.416 9.08759 292.767 87.2337 -506.354 -2410.83)
(242.839 34.1042 -313.558 -545.425 -904.899 -113.837)
(145.957 -8.74707 -164.982 -169.051 -590.903 -1633.41)
(72.2719 -86.651 146.502 10.6763 -556.927 -2253.92)
(1.90213 -100.117 211.375 62.4539 -687.983 -2340.05)
(-27.233 -54.7753 122.717 74.9605 -763.672 -2348.64)
(-11.1634 8.32093 23.1027 69.5377 -684.75 -2427.49)
(34.3499 51.0856 45.4509 47.585 -478.573 -2553.44)
(73.7897 59.6504 240.843 13.0241 -252.712 -2572.61)
(71.6842 43.6766 517.619 -10.8427 -78.4525 -2366.48)
(21.0908 17.2543 697.832 -11.3576 14.3773 -1933.34)
(-47.9044 -4.59228 646.502 1.78751 10.2092 -1409.46)
(-89.8602 -13.4021 382.741 19.387 -63.1935 -1029.99)
(-81.5523 -10.0431 67.1308 25.45 -169.411 -910.439)
(-37.5997 2.83801 -133.965 11.9354 -260.77 -992.428)
(8.5299 17.4025 -160.801 -10.7014 -289.293 -1136.83)
(31.0262 22.4494 -65.266 -30.5498 -253.668 -1234.49)
(21.3798 12.7808 47.8941 -37.8431 -195.225 -1244.04)
(-14.4598 -7.54255 75.2749 -27.5305 -171.49 -1188.31)
(-56.8188 -24.5594 -46.4921 -6.35661 -221.686 -1135.51)
(-74.4156 -23.6348 -294.008 9.78631 -327.115 -1203.49)
(-44.0225 -4.8786 -529.773 10.7449 -422.144 -1482.38)
(19.901 18.722 -579.213 -7.14558 -448.909 -1895.51)
(66.393 30.0903 -399.359 -32.3783 -374.446 -2203.08)
(52.1061 16.6551 -149.492 -50.6062 -239.949 -2219.74)
(-14.1331 -22.9246 -69.6149 -52.5707 -138.547 -1970.41)
(-70.8185 -76.8272 -259.64 -46.0961 -190.473 -1699.72)
(-55.9735 -116.998 -553.054 -39.1136 -443.899 -1657.1)
(41.6436 -103.539 -641.694 -27.1793 -773.941 -1862.1)
(209.321 -25.4869 -312.292 33.1809 -859.503 -2170.2)
(711.709 4.2678 264.547 227.163 -443.744 -2593.55)
(239.044 44.1949 -314.924 -429.816 -1261.79 -251.89)
(128.104 24.114 -217.723 -90.1999 -682.659 -1588.73)
(62.9297 -68.1763 45.5469 89.079 -540.428 -2235.22)
(7.04643 -89.6836 110.933 149.155 -643.595 -2415.5)
(-13.7605 -48.6787 59.5731 168.184 -713.31 -2498.97)
(2.41155 9.86186 9.4771 169.689 -638.726 -2609.24)
(42.1945 47.8819 69.4996 152.503 -448.559 -2722.87)
(74.8485 53.4157 279.614 115.493 -247.806 -2709.27)