/*--------------------------------*- C++ -*----------------------------------*\
| =========                 |                                                 |
| \\      /  F ield         | OpenFOAM: The Open Source CFD Toolbox           |
|  \\    /   O peration     | Version:  2106                                  |
|   \\  /    A nd           | Website:  www.openfoam.com                      |
|    \\/     M anipulation  |                                                 |
\*---------------------------------------------------------------------------*/
FoamFile
{
    version     2.0;
    format      ascii;
    arch        "LSB;label=32;scalar=64";
    class       volSymmTensorField;
    location    "1051";
    object      sigma;
}
// * * * * * * * * * * * * * * * * * * * * * * * * * * * * * * * * * * * * * //

dimensions      [1 -1 -2 0 0 0 0];

internalField   nonuniform List<symmTensor> 
9000
(
(1.33376e+12 -4.50619e+10 1.11446e+12 5.93351e+11 -8.82588e+11 8.57549e+12)
(1.31831e+12 -3.00679e+09 8.60867e+11 3.85156e+11 -5.45276e+11 5.12088e+12)
(7.50259e+11 1.50002e+10 3.09249e+11 1.72548e+11 -4.94748e+11 2.58102e+12)
(-3.90345e+11 1.72982e+10 1.58796e+11 -2.0059e+11 -5.44735e+11 -1.23968e+12)
(-1.05736e+12 8.32294e+09 6.17765e+11 -4.14741e+11 -5.45778e+11 -3.56266e+12)
(-6.8456e+11 -3.63927e+09 1.23858e+12 -2.86511e+11 -4.43709e+11 -2.35237e+12)
(5.12743e+11 -9.85522e+09 1.42214e+12 1.11369e+11 -2.67572e+11 1.68905e+12)
(1.71634e+12 -6.17053e+09 9.16464e+11 5.12383e+11 -9.32465e+10 5.69912e+12)
(2.08971e+12 3.94397e+09 4.8715e+10 6.29833e+11 -1.59866e+10 6.82996e+12)
(1.48888e+12 1.17985e+10 -5.82427e+11 4.18296e+11 -6.98375e+10 4.68529e+12)
(4.84525e+11 1.3359e+10 -6.69505e+11 8.82795e+10 -1.85267e+11 1.27055e+12)
(-3.1982e+11 8.89709e+09 -3.22839e+11 -1.64779e+11 -2.71305e+11 -1.32425e+12)
(-4.9943e+11 9.6759e+08 1.25459e+11 -2.08692e+11 -2.87951e+11 -1.78152e+12)
(-1.50295e+11 -4.67295e+09 3.65478e+11 -8.40572e+10 -2.39235e+11 -5.35089e+11)
(3.93573e+11 -6.66025e+09 3.54355e+11 9.11133e+10 -1.62671e+11 1.25659e+12)
(8.62595e+11 -6.49162e+09 1.72719e+11 2.37414e+11 -1.16008e+11 2.78303e+12)
(1.05569e+12 -2.942e+09 -1.58917e+11 2.96989e+11 -1.43628e+11 3.4741e+12)
(7.87773e+11 2.49944e+09 -5.82398e+11 2.01473e+11 -2.36911e+11 2.6289e+12)
(6.56936e+10 5.25542e+09 -7.61523e+11 -4.09196e+10 -3.43092e+11 1.37899e+11)
(-5.11408e+11 1.28274e+09 -4.16513e+11 -2.43902e+11 -4.01142e+11 -1.97689e+12)
(-3.73642e+11 -8.57696e+09 2.42868e+11 -2.11339e+11 -3.79286e+11 -1.61922e+12)
(6.03124e+11 -1.52011e+10 6.58488e+11 1.08352e+11 -2.9371e+11 1.6716e+12)
(1.71661e+12 -1.11951e+10 4.14578e+11 4.74956e+11 -2.0398e+11 5.46932e+12)
(2.1292e+12 1.71463e+09 -2.87362e+11 6.04055e+11 -1.66034e+11 6.77118e+12)
(1.60755e+12 1.35347e+10 -7.67936e+11 4.15202e+11 -1.83815e+11 4.80443e+12)
(8.33261e+11 1.62768e+10 -6.08045e+11 1.5422e+11 -2.05752e+11 2.0749e+12)
(5.72627e+11 1.12697e+10 -1.47861e+11 8.94513e+10 -1.77074e+11 1.36617e+12)
(7.74782e+11 3.14129e+09 -5.33652e+10 1.9981e+11 -1.21462e+11 2.45498e+12)
(7.6856e+11 -2.92395e+09 -5.03306e+11 2.39844e+11 -1.42333e+11 2.86598e+12)
(1.9042e+11 9.37843e+09 -5.57041e+11 9.78213e+10 -3.6587e+11 1.7434e+12)
(1.48716e+12 -6.34868e+10 9.40446e+11 1.38764e+12 -2.81302e+12 8.30452e+12)
(1.29797e+12 4.91165e+10 7.81657e+11 7.38878e+11 -1.7559e+12 4.46416e+12)
(7.32828e+11 9.8849e+10 4.22938e+11 3.45696e+11 -1.44056e+12 2.24584e+12)
(-2.53329e+11 1.03165e+11 3.00605e+11 -2.03127e+11 -1.27228e+12 -7.55025e+11)
(-8.48981e+11 3.39783e+10 6.21998e+11 -5.37107e+11 -1.09085e+12 -2.63569e+12)
(-5.44505e+11 -5.70267e+10 1.07264e+12 -3.64432e+11 -9.29656e+11 -1.71329e+12)
(4.84049e+11 -9.90986e+10 1.18056e+12 2.18514e+11 -8.08319e+11 1.48976e+12)
(1.49659e+12 -6.21201e+10 7.53242e+11 7.85214e+11 -6.84439e+11 4.61029e+12)
(1.79245e+12 1.99116e+10 6.39448e+10 9.30636e+11 -5.81638e+11 5.43983e+12)
(1.28105e+12 8.20762e+10 -4.2643e+11 6.22186e+11 -5.56437e+11 3.74909e+12)
(4.30846e+11 9.11926e+10 -4.92584e+11 1.51232e+11 -5.77522e+11 1.06859e+12)
(-2.40042e+11 5.25167e+10 -2.26459e+11 -2.00415e+11 -5.86647e+11 -9.41641e+11)
(-3.78407e+11 -3.55574e+09 1.07793e+11 -2.49055e+11 -5.88466e+11 -1.26773e+12)
(-8.52298e+10 -3.94933e+10 2.73892e+11 -7.31151e+10 -5.59922e+11 -3.00183e+11)
(3.66436e+11 -4.83366e+10 2.55137e+11 1.65178e+11 -5.10226e+11 1.07777e+12)
(7.6569e+11 -3.90527e+10 1.22106e+11 3.73735e+11 -5.15402e+11 2.27654e+12)
(9.6167e+11 -9.26028e+09 -1.24568e+11 4.92768e+11 -6.39678e+11 2.90128e+12)
(7.83146e+11 3.54761e+10 -4.68667e+11 4.05583e+11 -8.13931e+11 2.36403e+12)
(1.58203e+11 5.64406e+10 -6.36693e+11 4.72531e+10 -8.80874e+11 3.77843e+11)
(-3.64241e+11 1.95223e+10 -3.79511e+11 -2.78892e+11 -8.62669e+11 -1.3664e+12)
(-2.63254e+11 -5.67936e+10 1.39547e+11 -2.50851e+11 -8.40533e+11 -1.12262e+12)
(5.75428e+11 -1.06345e+11 4.7221e+11 2.19716e+11 -8.83338e+11 1.48974e+12)
(1.54563e+12 -7.71848e+10 2.78859e+11 7.74748e+11 -9.56166e+11 4.53924e+12)
(1.88929e+12 1.07617e+10 -2.81571e+11 9.56296e+11 -9.64459e+11 5.54776e+12)
(1.41637e+12 7.99264e+10 -6.5991e+11 6.52091e+11 -8.62169e+11 3.92919e+12)
(7.35634e+11 7.67471e+10 -5.21934e+11 2.49199e+11 -7.07135e+11 1.72613e+12)
(5.28828e+11 2.92835e+10 -1.4719e+11 1.66741e+11 -5.77795e+11 1.20168e+12)
(7.40995e+11 -2.50642e+09 -7.17354e+10 3.63857e+11 -5.12913e+11 2.14481e+12)
(7.55329e+11 -1.24462e+08 -4.25671e+11 4.43676e+11 -5.83841e+11 2.50381e+12)
(2.47252e+11 3.1645e+10 -4.54455e+11 2.69756e+11 -1.01453e+12 1.73696e+12)
(1.13114e+12 -8.28754e+10 7.4852e+11 1.4062e+12 -3.64823e+12 5.93506e+12)
(7.57178e+11 8.75122e+10 7.36888e+11 5.89404e+11 -2.23066e+12 2.58906e+12)
(2.84187e+11 1.42621e+11 5.54063e+11 1.50347e+11 -1.77819e+12 9.1936e+11)
(-4.85749e+11 1.472e+11 4.61391e+11 -4.29989e+11 -1.48163e+12 -1.19566e+12)
(-9.40953e+11 4.83978e+10 6.45857e+11 -7.75319e+11 -1.19919e+12 -2.5135e+12)
(-6.63875e+11 -8.44651e+10 9.20055e+11 -5.59937e+11 -1.04123e+12 -1.751e+12)
(2.0337e+11 -1.44619e+11 9.49857e+11 1.10052e+11 -1.01553e+12 7.19935e+11)
(1.04434e+12 -8.89209e+10 6.02281e+11 7.53728e+11 -9.7928e+11 3.08747e+12)
(1.29293e+12 2.94965e+10 8.794e+10 9.22573e+11 -8.8963e+11 3.71296e+12)
(8.85282e+11 1.19124e+11 -2.66078e+11 5.85474e+11 -8.05753e+11 2.45924e+12)
(2.01315e+11 1.32282e+11 -3.11284e+11 6.7039e+10 -7.31106e+11 4.66836e+11)
(-3.27876e+11 7.54755e+10 -1.25376e+11 -3.14164e+11 -6.67608e+11 -9.94316e+11)
(-4.25851e+11 -5.2009e+09 9.41773e+10 -3.60372e+11 -6.54597e+11 -1.19839e+12)
(-1.83949e+11 -5.6554e+10 1.86505e+11 -1.63157e+11 -6.52251e+11 -4.69288e+11)
(1.827e+11 -6.98253e+10 1.56716e+11 1.00462e+11 -6.46716e+11 5.52697e+11)
(5.03208e+11 -5.78473e+10 6.18029e+10 3.28135e+11 -7.00111e+11 1.43558e+12)
(6.57014e+11 -1.665e+10 -1.0919e+11 4.54462e+11 -8.69693e+11 1.8974e+12)
(5.07775e+11 5.04469e+10 -3.68416e+11 3.51164e+11 -1.05986e+12 1.50031e+12)
(-1.95999e+10 8.44167e+10 -5.12382e+11 -5.95348e+10 -1.06387e+12 -3.44807e+10)
(-4.63525e+11 3.02572e+10 -3.39514e+11 -4.33968e+11 -9.81436e+11 -1.39345e+12)
(-3.92965e+11 -8.21147e+10 3.29667e+10 -4.10539e+11 -9.70299e+11 -1.23941e+12)
(2.79879e+11 -1.55146e+11 2.75462e+11 1.05264e+11 -1.11426e+12 6.99639e+11)
(1.0626e+12 -1.1201e+11 1.35688e+11 7.17169e+11 -1.30855e+12 2.97383e+12)
(1.33175e+12 1.71202e+10 -2.69393e+11 9.14677e+11 -1.35338e+12 3.69994e+12)
(9.48759e+11 1.17278e+11 -5.31651e+11 5.81205e+11 -1.18081e+12 2.4828e+12)
(4.19876e+11 1.10759e+11 -4.095e+11 1.52037e+11 -9.23855e+11 8.9025e+11)
(3.00396e+11 4.02464e+10 -1.24091e+11 9.11611e+10 -7.53013e+11 6.27697e+11)
(5.25012e+11 -4.52236e+09 -8.31546e+10 3.39898e+11 -7.03081e+11 1.47171e+12)
(5.4919e+11 8.55172e+07 -3.71986e+11 4.30613e+11 -7.8749e+11 1.73915e+12)
(1.31157e+11 4.74629e+10 -3.57859e+11 2.06475e+11 -1.25519e+12 9.96384e+11)
(6.2764e+11 -9.25346e+10 5.39564e+11 1.17046e+12 -3.78648e+12 2.93167e+12)
(9.33446e+10 1.02059e+11 6.97452e+11 2.7429e+11 -2.26367e+12 4.42291e+11)
(-2.595e+11 1.51899e+11 6.79973e+11 -1.35221e+11 -1.77363e+12 -6.14845e+11)
(-7.83992e+11 1.56458e+11 6.18731e+11 -6.2461e+11 -1.44063e+12 -1.87376e+12)
(-1.07341e+12 5.0203e+10 6.72891e+11 -9.06415e+11 -1.13119e+12 -2.6198e+12)
(-8.23371e+11 -9.56405e+10 7.73789e+11 -6.86693e+11 -9.92699e+11 -1.97774e+12)
(-1.40252e+11 -1.6045e+11 7.28215e+11 -5.87893e+10 -1.02826e+12 -1.8727e+11)
(5.11698e+11 -9.70934e+10 4.60527e+11 5.34884e+11 -1.04857e+12 1.49614e+12)
(7.1291e+11 3.32359e+10 1.14941e+11 6.92874e+11 -9.76972e+11 1.95247e+12)
(4.21941e+11 1.31966e+11 -1.0782e+11 3.9646e+11 -8.67414e+11 1.1088e+12)
(-7.30901e+10 1.46477e+11 -1.32079e+11 -6.06328e+10 -7.40842e+11 -2.30518e+11)
(-4.44542e+11 8.30557e+10 -2.45441e+10 -3.8892e+11 -6.4127e+11 -1.17249e+12)
(-4.99108e+11 -5.49853e+09 8.32818e+10 -4.18646e+11 -6.21228e+11 -1.25943e+12)
(-3.12773e+11 -6.16883e+10 1.03946e+11 -2.3978e+11 -6.34922e+11 -7.43405e+11)
(-4.02755e+10 -7.68181e+10 6.15878e+10 -6.73266e+09 -6.59162e+11 -4.90142e+10)
(1.89942e+11 -6.46463e+10 -1.09714e+09 1.92089e+11 -7.38445e+11 5.29842e+11)
(2.87894e+11 -2.05514e+10 -1.03071e+11 3.02202e+11 -9.16672e+11 8.04039e+11)
(1.57971e+11 5.51077e+10 -2.76164e+11 2.07338e+11 -1.09445e+12 4.86061e+11)
(-2.55776e+11 9.50676e+10 -3.89714e+11 -1.76776e+11 -1.05949e+12 -6.22236e+11)
(-6.03987e+11 3.46793e+10 -2.98052e+11 -5.30959e+11 -9.48029e+11 -1.60224e+12)
(-5.65822e+11 -9.04784e+10 -7.15043e+10 -5.22685e+11 -9.48055e+11 -1.53078e+12)
(-8.17023e+10 -1.71435e+11 8.01349e+10 -6.7544e+10 -1.13891e+12 -2.37032e+11)
(4.84428e+11 -1.22847e+11 -5.89628e+09 4.78461e+11 -1.38456e+12 1.2838e+12)
(6.71741e+11 2.06666e+10 -2.53924e+11 6.5037e+11 -1.44301e+12 1.7426e+12)
(3.95799e+11 1.30671e+11 -3.9769e+11 3.52405e+11 -1.24639e+12 9.21011e+11)
(4.28169e+10 1.21829e+11 -2.88798e+11 -1.43574e+10 -9.596e+11 -6.64141e+10)
(1.89031e+10 4.31447e+10 -9.14287e+10 -3.08596e+10 -7.877e+11 -5.84754e+10)
(2.50121e+11 -4.63531e+09 -8.96368e+10 2.32567e+11 -7.56513e+11 7.07448e+11)
(2.83934e+11 2.7814e+09 -3.25675e+11 3.19407e+11 -8.35368e+11 8.78085e+11)
(-2.79645e+10 5.58036e+10 -2.61437e+11 8.74738e+10 -1.26344e+12 5.35568e+10)
(1.21607e+11 -9.27139e+10 3.28011e+11 7.9229e+11 -3.4747e+12 3.93196e+10)
(-5.37845e+11 9.23159e+10 6.48027e+11 -1.23102e+11 -2.03338e+12 -1.52266e+12)
(-7.74449e+11 1.33215e+11 7.80811e+11 -4.65022e+11 -1.58305e+12 -2.00839e+12)
(-1.07128e+12 1.38204e+11 7.51177e+11 -8.10624e+11 -1.28824e+12 -2.53187e+12)
(-1.20475e+12 4.14752e+10 6.91808e+11 -9.94831e+11 -1.00848e+12 -2.77694e+12)
(-9.81253e+11 -9.41366e+10 6.37728e+11 -7.87894e+11 -8.86246e+11 -2.23431e+12)
(-4.74957e+11 -1.53165e+11 5.26332e+11 -2.61139e+11 -9.28379e+11 -1.03559e+12)
(-1.47321e+09 -9.12149e+10 3.3353e+11 2.26781e+11 -9.55122e+11 6.08647e+10)
(1.55952e+11 3.23801e+10 1.40707e+11 3.60432e+11 -8.93057e+11 3.76025e+11)
(-2.49107e+10 1.26013e+11 3.69119e+10 1.35783e+11 -7.89227e+11 -1.13556e+11)
(-3.38778e+11 1.39517e+11 3.21968e+10 -2.10724e+11 -6.6309e+11 -8.7948e+11)
(-5.60585e+11 7.85092e+10 6.81621e+10 -4.49527e+11 -5.6922e+11 -1.36811e+12)
(-5.73684e+11 -5.08996e+09 7.48259e+10 -4.57002e+11 -5.52171e+11 -1.35027e+12)
(-4.3853e+11 -5.7877e+10 3.07336e+10 -3.13477e+11 -5.68474e+11 -1.01326e+12)
(-2.55642e+11 -7.24173e+10 -2.38145e+10 -1.35167e+11 -5.98868e+11 -6.03175e+11)
(-1.12506e+11 -6.1321e+10 -5.91033e+10 1.33991e+10 -6.78052e+11 -2.93425e+11)
(-6.96604e+10 -2.0193e+10 -1.00367e+11 9.45868e+10 -8.39864e+11 -1.92956e+11)
(-1.84739e+11 5.23312e+10 -1.93645e+11 1.54934e+10 -9.95962e+11 -4.58052e+11)
(-4.89017e+11 9.13803e+10 -2.76605e+11 -3.05516e+11 -9.58008e+11 -1.19333e+12)
(-7.44781e+11 3.35633e+10 -2.58601e+11 -6.06607e+11 -8.53998e+11 -1.83919e+12)
(-7.38235e+11 -8.56703e+10 -1.65661e+11 -6.17811e+11 -8.60718e+11 -1.84274e+12)
(-4.3364e+11 -1.61963e+11 -9.70072e+10 -2.71406e+11 -1.04414e+12 -1.11344e+12)
(-7.37715e+10 -1.14716e+11 -1.33528e+11 1.52101e+11 -1.27355e+12 -2.5251e+11)
(3.72098e+10 2.18099e+10 -2.3747e+11 2.80195e+11 -1.3224e+12 -2.42821e+10)
(-1.37102e+11 1.24855e+11 -2.72614e+11 4.80845e+10 -1.13753e+12 -5.00659e+11)
(-3.24602e+11 1.14406e+11 -1.75509e+11 -2.16039e+11 -8.78074e+11 -9.59831e+11)
(-2.60008e+11 3.91844e+10 -5.75682e+10 -1.79178e+11 -7.32827e+11 -7.12235e+11)
(-2.39772e+10 -3.68706e+09 -9.17487e+10 8.06078e+10 -7.18123e+11 -7.10438e+09)
(2.14195e+10 7.78021e+09 -2.80621e+11 1.56415e+11 -7.82329e+11 7.90092e+10)
(-1.84706e+11 5.77474e+10 -1.6802e+11 -6.49175e+10 -1.1411e+12 -8.45301e+11)
(-3.10061e+11 -8.63704e+10 1.29827e+11 3.53632e+11 -2.88271e+12 -2.34497e+12)
(-1.05677e+12 6.51736e+10 5.83111e+11 -5.36532e+11 -1.65848e+12 -3.08257e+12)
(-1.19809e+12 9.64889e+10 8.44282e+11 -7.97417e+11 -1.30085e+12 -3.10134e+12)
(-1.30886e+12 1.02553e+11 8.44367e+11 -9.8756e+11 -1.08713e+12 -3.05442e+12)
(-1.31437e+12 2.60727e+10 6.9584e+11 -1.06598e+12 -8.69073e+11 -2.90927e+12)
(-1.11636e+12 -8.40187e+10 5.16849e+11 -8.78849e+11 -7.57528e+11 -2.45138e+12)
(-7.62892e+11 -1.30497e+11 3.54242e+11 -4.73432e+11 -7.67319e+11 -1.73103e+12)
(-4.42214e+11 -7.60359e+10 2.26896e+11 -1.08056e+11 -7.6461e+11 -1.10601e+12)
(-3.224e+11 2.87838e+10 1.62739e+11 -1.80168e+09 -7.03841e+11 -9.04563e+11)
(-4.09185e+11 1.07814e+11 1.59091e+11 -1.45098e+11 -6.24992e+11 -1.10943e+12)
(-5.66381e+11 1.18456e+11 1.71013e+11 -3.65245e+11 -5.34839e+11 -1.40838e+12)
(-6.59849e+11 6.57892e+10 1.46426e+11 -5.03887e+11 -4.74818e+11 -1.53042e+12)
(-6.36762e+11 -4.52766e+09 6.85836e+10 -4.87973e+11 -4.68629e+11 -1.42591e+12)
(-5.44393e+11 -4.83783e+10 -2.93555e+10 -3.84378e+11 -4.79253e+11 -1.23024e+12)
(-4.38705e+11 -6.03879e+10 -9.4138e+10 -2.67699e+11 -4.98472e+11 -1.05067e+12)
(-3.70894e+11 -5.09848e+10 -1.06635e+11 -1.75797e+11 -5.59045e+11 -9.60455e+11)
(-3.74846e+11 -1.65316e+10 -9.73795e+10 -1.28434e+11 -6.89922e+11 -9.99928e+11)
(-4.76655e+11 4.47689e+10 -1.2345e+11 -1.91656e+11 -8.22182e+11 -1.22124e+12)
(-6.87012e+11 7.78802e+10 -1.80273e+11 -4.36632e+11 -8.05676e+11 -1.65618e+12)
(-8.64311e+11 2.85438e+10 -2.24237e+11 -6.72734e+11 -7.32358e+11 -2.03461e+12)
(-8.86429e+11 -7.23096e+10 -2.4328e+11 -7.04619e+11 -7.41457e+11 -2.10346e+12)
(-7.35514e+11 -1.35643e+11 -2.43388e+11 -4.81881e+11 -8.82386e+11 -1.82977e+12)
(-5.51029e+11 -9.42058e+10 -2.37985e+11 -1.98704e+11 -1.05237e+12 -1.49754e+12)
(-5.04061e+11 2.13573e+10 -2.21571e+11 -1.19336e+11 -1.07706e+12 -1.45128e+12)
(-5.92691e+11 1.06432e+11 -1.66881e+11 -2.7596e+11 -9.24232e+11 -1.65247e+12)
(-6.42046e+11 9.46633e+10 -8.04319e+10 -4.26222e+11 -7.25195e+11 -1.69434e+12)
(-5.04158e+11 3.00916e+10 -2.81507e+10 -3.36499e+11 -6.23823e+11 -1.25763e+12)
(-2.644e+11 -2.88576e+09 -9.04393e+10 -8.89761e+10 -6.25429e+11 -6.00483e+11)
(-2.05817e+11 1.35289e+10 -2.35556e+11 -2.65713e+10 -6.71809e+11 -5.78712e+11)
(-3.17121e+11 5.51769e+10 -8.18809e+10 -2.32411e+11 -9.47694e+11 -1.58128e+12)
(-6.2977e+11 -7.60166e+10 -4.17862e+10 -7.8719e+10 -2.15269e+12 -4.04315e+12)
(-1.43075e+12 2.93977e+10 5.04488e+11 -9.16043e+11 -1.23172e+12 -4.15876e+12)
(-1.50582e+12 5.19831e+10 8.66826e+11 -1.09851e+12 -9.95191e+11 -3.84608e+12)
(-1.4803e+12 5.96489e+10 8.92956e+11 -1.14631e+12 -8.76103e+11 -3.40152e+12)
(-1.39235e+12 8.03769e+09 6.82359e+11 -1.12738e+12 -7.29827e+11 -2.98624e+12)
(-1.21858e+12 -6.94011e+10 4.13775e+11 -9.62498e+11 -6.25017e+11 -2.60153e+12)
(-9.87622e+11 -1.00115e+11 2.16841e+11 -6.7682e+11 -5.84779e+11 -2.24137e+12)
(-7.8848e+11 -5.60697e+10 1.43414e+11 -4.29334e+11 -5.35828e+11 -1.97033e+12)
(-6.99005e+11 2.42449e+10 1.80196e+11 -3.48233e+11 -4.70902e+11 -1.85586e+12)
(-7.10814e+11 8.38181e+10 2.5463e+11 -4.12748e+11 -4.23948e+11 -1.84581e+12)
(-7.42418e+11 9.03999e+10 2.79182e+11 -5.09848e+11 -3.85591e+11 -1.79056e+12)
(-7.34032e+11 4.88874e+10 2.0706e+11 -5.52466e+11 -3.71843e+11 -1.6375e+12)
(-6.81789e+11 -4.19248e+09 6.41294e+10 -5.14633e+11 -3.81192e+11 -1.46727e+12)
(-6.22831e+11 -3.6291e+10 -7.4781e+10 -4.48924e+11 -3.83353e+11 -1.37689e+12)
(-5.78661e+11 -4.45364e+10 -1.46822e+11 -3.91262e+11 -3.83001e+11 -1.37153e+12)
(-5.70594e+11 -3.7016e+10 -1.4087e+11 -3.53735e+11 -4.15711e+11 -1.44626e+12)
(-6.09889e+11 -1.10921e+10 -9.21394e+10 -3.39351e+11 -5.10041e+11 -1.5851e+12)
(-6.9872e+11 3.48856e+10 -6.67913e+10 -3.88613e+11 -6.19791e+11 -1.76492e+12)
(-8.34953e+11 5.94609e+10 -1.04348e+11 -5.58529e+11 -6.34404e+11 -1.97608e+12)
(-9.51627e+11 2.14762e+10 -1.96677e+11 -7.30348e+11 -6.00952e+11 -2.1591e+12)
(-9.98222e+11 -5.49494e+10 -3.01711e+11 -7.82498e+11 -6.0971e+11 -2.28219e+12)
(-9.68949e+11 -1.01397e+11 -3.5346e+11 -6.79144e+11 -6.93448e+11 -2.34969e+12)
(-9.21303e+11 -6.7882e+10 -3.15149e+11 -5.31251e+11 -7.86467e+11 -2.40661e+12)
(-9.23688e+11 2.01197e+10 -2.07047e+11 -4.97715e+11 -7.81134e+11 -2.49186e+12)
(-9.45927e+11 8.19828e+10 -8.54689e+10 -5.81605e+11 -6.67271e+11 -2.49033e+12)
(-8.90078e+11 6.87439e+10 -8.98622e+09 -6.24324e+11 -5.40201e+11 -2.2317e+12)
(-6.9771e+11 1.76503e+10 -6.82103e+09 -4.8845e+11 -4.9068e+11 -1.66343e+12)
(-4.56322e+11 -3.33802e+09 -8.75265e+10 -2.57184e+11 -5.10906e+11 -1.04735e+12)
(-3.84026e+11 1.85237e+10 -1.91666e+11 -2.07855e+11 -5.4038e+11 -1.06783e+12)
(-4.15888e+11 4.9858e+10 -6.51852e+09 -3.98453e+11 -7.28172e+11 -2.10911e+12)
(-8.26822e+11 -6.33857e+10 -1.77854e+11 -4.56034e+11 -1.40318e+12 -5.02503e+12)
(-1.65818e+12 -7.33857e+09 4.18266e+11 -1.22883e+12 -8.23195e+11 -4.76579e+12)
(-1.69775e+12 8.02033e+09 8.5184e+11 -1.3454e+12 -7.14312e+11 -4.26307e+12)
(-1.58408e+12 1.75237e+10 8.99019e+11 -1.27772e+12 -6.83246e+11 -3.57739e+12)
(-1.43638e+12 -9.38285e+09 6.5202e+11 -1.17992e+12 -6.03692e+11 -3.00157e+12)
(-1.28571e+12 -5.36019e+10 3.28601e+11 -1.03777e+12 -5.03248e+11 -2.6808e+12)
(-1.14722e+12 -6.81881e+10 1.1407e+11 -8.58366e+11 -4.11494e+11 -2.57354e+12)
(-1.03874e+12 -3.49076e+10 8.30634e+10 -7.131e+11 -3.13808e+11 -2.54966e+12)
(-9.72112e+11 2.01324e+10 1.93482e+11 -6.52293e+11 -2.41285e+11 -2.49697e+12)
(-9.27286e+11 5.92116e+10 3.23866e+11 -6.46774e+11 -2.24433e+11 -2.33388e+12)
(-8.64495e+11 6.11898e+10 3.56558e+11 -6.34738e+11 -2.38609e+11 -2.02848e+12)
(-7.80707e+11 3.1138e+10 2.49758e+11 -5.93411e+11 -2.71712e+11 -1.68487e+12)
(-7.06865e+11 -4.24963e+09 6.09215e+10 -5.3666e+11 -2.98287e+11 -1.47e+12)
(-6.7256e+11 -2.40456e+10 -1.06035e+11 -5.03593e+11 -2.92788e+11 -1.45366e+12)
(-6.74037e+11 -2.8008e+10 -1.81927e+11 -4.9734e+11 -2.71582e+11 -1.57023e+12)
(-7.09552e+11 -2.22717e+10 -1.61454e+11 -5.07013e+11 -2.7465e+11 -1.75779e+12)
(-7.72412e+11 -5.26481e+09 -8.40702e+10 -5.20909e+11 -3.33216e+11 -1.95711e+12)
(-8.48362e+11 2.46211e+10 -2.33568e+10 -5.57948e+11 -4.23549e+11 -2.09672e+12)
(-9.29854e+11 4.01585e+10 -4.89857e+10 -6.61608e+11 -4.68467e+11 -2.15297e+12)
(-1.00344e+12 1.38981e+10 -1.76306e+11 -7.77241e+11 -4.73963e+11 -2.20627e+12)
(-1.0699e+12 -3.72475e+10 -3.41415e+11 -8.48263e+11 -4.81449e+11 -2.37255e+12)
(-1.13056e+12 -6.63536e+10 -4.27777e+11 -8.49646e+11 -5.08249e+11 -2.6766e+12)
(-1.1817e+12 -4.09974e+10 -3.65392e+11 -8.1937e+11 -5.25746e+11 -2.99511e+12)
(-1.21912e+12 1.8724e+10 -1.94144e+11 -8.24439e+11 -4.90486e+11 -3.16597e+12)
(-1.19359e+12 5.67411e+10 -2.86558e+10 -8.4503e+11 -4.13499e+11 -3.02656e+12)
(-1.06442e+12 4.15891e+10 3.78824e+10 -7.9636e+11 -3.55184e+11 -2.57252e+12)
(-8.36852e+11 3.48992e+09 4.3675e+09 -6.24618e+11 -3.58006e+11 -1.92877e+12)
(-5.97393e+11 -5.69044e+09 -8.53896e+10 -4.11661e+11 -4.00113e+11 -1.35314e+12)
(-5.12039e+11 2.17894e+10 -1.51112e+11 -3.74013e+11 -4.16435e+11 -1.39595e+12)
(-4.79738e+11 4.34293e+10 5.60154e+10 -5.50359e+11 -5.18453e+11 -2.43036e+12)
(-9.08909e+11 -4.98184e+10 -2.74225e+11 -7.49139e+11 -7.23751e+11 -5.35693e+12)
(-1.75676e+12 -3.95743e+10 3.31811e+11 -1.45852e+12 -4.78254e+11 -4.9731e+12)
(-1.78895e+12 -2.99027e+10 8.06885e+11 -1.52699e+12 -4.86948e+11 -4.40962e+12)
(-1.62843e+12 -1.87389e+10 8.69249e+11 -1.37673e+12 -5.26771e+11 -3.61098e+12)
(-1.45004e+12 -2.41223e+10 6.07573e+11 -1.22322e+12 -5.00833e+11 -2.96387e+12)
(-1.32138e+12 -3.88213e+10 2.59703e+11 -1.10347e+12 -4.03442e+11 -2.69965e+12)
(-1.24919e+12 -3.8845e+10 4.2445e+10 -1.01142e+12 -2.68198e+11 -2.75744e+12)
(-1.20405e+12 -1.49962e+10 4.38498e+10 -9.47993e+11 -1.27728e+11 -2.89138e+12)
(-1.1529e+12 1.72978e+10 2.03788e+11 -9.01537e+11 -4.56345e+10 -2.87692e+12)
(-1.06711e+12 3.74845e+10 3.70111e+11 -8.37148e+11 -5.2248e+10 -2.6108e+12)
(-9.37579e+11 3.4869e+10 4.06522e+11 -7.34809e+11 -1.10229e+11 -2.14219e+12)
(-8.01894e+11 1.49071e+10 2.76248e+11 -6.25137e+11 -1.83374e+11 -1.6792e+12)
(-7.13651e+11 -4.69474e+09 5.84311e+10 -5.53282e+11 -2.26401e+11 -1.43889e+12)
(-6.96511e+11 -1.32393e+10 -1.24943e+11 -5.46478e+11 -2.15957e+11 -1.47119e+12)
(-7.29367e+11 -1.29918e+10 -2.01347e+11 -5.81813e+11 -1.77234e+11 -1.66537e+12)
(-7.93699e+11 -8.75005e+09 -1.69739e+11 -6.29151e+11 -1.53867e+11 -1.92073e+12)
(-8.6962e+11 1.18834e+07 -7.34877e+10 -6.64569e+11 -1.81201e+11 -2.14782e+12)
(-9.33156e+11 1.52751e+10 8.24713e+09 -6.90511e+11 -2.55541e+11 -2.24993e+12)
(-9.76565e+11 2.26376e+10 -1.20239e+10 -7.40329e+11 -3.24575e+11 -2.20706e+12)
(-1.02214e+12 6.81181e+09 -1.62603e+11 -8.11492e+11 -3.62465e+11 -2.18411e+12)
(-1.10408e+12 -2.16542e+10 -3.64901e+11 -8.99485e+11 -3.69257e+11 -2.38365e+12)
(-1.22676e+12 -3.52325e+10 -4.70924e+11 -9.86393e+11 -3.48309e+11 -2.83737e+12)
(-1.34371e+12 -1.70362e+10 -3.9211e+11 -1.05043e+12 -3.02854e+11 -3.31296e+12)
(-1.40343e+12 1.75811e+10 -1.82694e+11 -1.08498e+12 -2.41253e+11 -3.53082e+12)
(-1.34611e+12 3.41364e+10 6.36694e+09 -1.05443e+12 -1.94021e+11 -3.30604e+12)
(-1.17118e+12 1.65395e+10 6.22489e+10 -9.34817e+11 -1.93015e+11 -2.74204e+12)
(-9.26066e+11 -1.10391e+10 4.60285e+09 -7.39041e+11 -2.43567e+11 -2.07198e+12)
(-6.93329e+11 -1.0103e+10 -8.64387e+10 -5.46004e+11 -3.1023e+11 -1.54164e+12)
(-5.96583e+11 2.28696e+10 -1.15925e+11 -5.18537e+11 -3.18875e+11 -1.59186e+12)
(-5.12558e+11 3.72079e+10 1.05628e+11 -6.80302e+11 -3.44397e+11 -2.57576e+12)
(-8.95068e+11 -3.64605e+10 -3.31547e+11 -9.46982e+11 -1.73653e+11 -5.16107e+12)
(-1.75379e+12 -6.41542e+10 2.51433e+11 -1.60247e+12 -2.1973e+11 -4.87472e+12)
(-1.8017e+12 -5.9061e+10 7.40982e+11 -1.64252e+12 -3.24889e+11 -4.35697e+12)
(-1.62697e+12 -4.6796e+10 8.12385e+11 -1.44307e+12 -4.1529e+11 -3.54237e+12)
(-1.44067e+12 -3.5235e+10 5.5274e+11 -1.25756e+12 -4.2759e+11 -2.89036e+12)
(-1.33299e+12 -2.6217e+10 2.04617e+11 -1.15961e+12 -3.32655e+11 -2.67673e+12)
(-1.30615e+12 -1.42795e+10 -3.27806e+09 -1.13479e+12 -1.65842e+11 -2.83334e+12)
(-1.30179e+12 2.27201e+09 2.27532e+10 -1.13194e+12 7.43429e+09 -3.05509e+12)
(-1.25916e+12 1.6111e+10 2.12673e+11 -1.09378e+12 9.9776e+10 -3.05739e+12)
(-1.14479e+12 2.05364e+10 3.98279e+11 -9.81905e+11 7.84857e+10 -2.7257e+12)
(-9.70904e+11 1.37299e+10 4.34386e+11 -8.09013e+11 -1.00098e+10 -2.16064e+12)
(-8.0255e+11 1.59952e+09 2.89442e+11 -6.47264e+11 -1.12536e+11 -1.63356e+12)
(-7.06089e+11 -5.42378e+09 5.62455e+10 -5.6434e+11 -1.69543e+11 -1.38371e+12)
(-7.00091e+11 -4.71478e+09 -1.33973e+11 -5.77516e+11 -1.57696e+11 -1.44519e+12)
(-7.52533e+11 -7.34706e+08 -2.07968e+11 -6.44214e+11 -1.07243e+11 -1.68219e+12)
(-8.33328e+11 2.41322e+09 -1.67996e+11 -7.19075e+11 -6.33988e+10 -1.96951e+12)
(-9.13808e+11 4.27536e+09 -6.11103e+10 -7.68686e+11 -6.56658e+10 -2.19938e+12)
(-9.65868e+11 7.56231e+09 2.99777e+10 -7.84309e+11 -1.26806e+11 -2.26824e+12)
(-9.84487e+11 8.25524e+09 9.83419e+09 -7.93453e+11 -2.1195e+11 -2.16837e+12)
(-1.01387e+12 7.0127e+08 -1.54619e+11 -8.3263e+11 -2.73695e+11 -2.10891e+12)
(-1.10754e+12 -9.49256e+09 -3.75736e+11 -9.35612e+11 -2.81345e+11 -2.33362e+12)
(-1.26959e+12 -1.04961e+10 -4.89466e+11 -1.08803e+12 -2.2611e+11 -2.87032e+12)
(-1.42614e+12 2.18321e+09 -4.00156e+11 -1.22212e+12 -1.34947e+11 -3.42469e+12)
(-1.49765e+12 1.68893e+10 -1.72274e+11 -1.27686e+12 -5.24028e+10 -3.65901e+12)
(-1.4212e+12 1.59341e+10 2.39084e+10 -1.20757e+12 -2.56501e+10 -3.38789e+12)
(-1.22249e+12 -4.57157e+09 6.77403e+10 -1.0377e+12 -6.72543e+10 -2.77811e+12)
(-9.74801e+11 -2.49388e+10 -6.03639e+09 -8.29951e+11 -1.58006e+11 -2.12145e+12)
(-7.54207e+11 -1.63795e+10 -9.27635e+10 -6.58692e+11 -2.50378e+11 -1.64498e+12)
(-6.48496e+11 2.15886e+10 -8.77547e+10 -6.40288e+11 -2.57655e+11 -1.6942e+12)
(-5.21237e+11 3.18684e+10 1.43848e+11 -7.8499e+11 -2.21187e+11 -2.5919e+12)
(-8.10059e+11 -2.42255e+10 -3.54492e+11 -1.05302e+12 2.15324e+11 -4.58486e+12)
(-1.67911e+12 -7.98249e+10 1.8108e+11 -1.66832e+12 -5.32937e+10 -4.56831e+12)
(-1.75992e+12 -7.88924e+10 6.62539e+11 -1.69878e+12 -2.27544e+11 -4.17545e+12)
(-1.59505e+12 -6.63306e+10 7.37204e+11 -1.48017e+12 -3.49594e+11 -3.41341e+12)
(-1.41748e+12 -4.26241e+10 4.91365e+11 -1.28414e+12 -3.86162e+11 -2.80211e+12)
(-1.32967e+12 -1.61711e+10 1.60733e+11 -1.20735e+12 -2.93659e+11 -2.63412e+12)
(-1.33239e+12 4.80925e+09 -2.87112e+10 -1.23112e+12 -1.07405e+11 -2.84272e+12)
(-1.35115e+12 1.63203e+10 1.64488e+10 -1.26918e+12 8.75996e+10 -3.10057e+12)
(-1.31085e+12 1.65652e+10 2.21687e+11 -1.23357e+12 1.89724e+11 -3.10107e+12)
(-1.17702e+12 9.00867e+09 4.13757e+11 -1.0846e+12 1.63078e+11 -2.72967e+12)
(-9.75529e+11 -1.35506e+09 4.46126e+11 -8.59382e+11 5.83683e+10 -2.11525e+12)
(-7.89061e+11 -8.18297e+09 2.92732e+11 -6.60616e+11 -6.16484e+10 -1.56363e+12)
(-6.8921e+11 -6.29733e+09 5.41145e+10 -5.70484e+11 -1.29273e+11 -1.31612e+12)
(-6.89786e+11 1.26029e+09 -1.35728e+11 -5.98065e+11 -1.1975e+11 -1.39288e+12)
(-7.52735e+11 8.28204e+09 -2.04994e+11 -6.86658e+11 -6.41407e+10 -1.64737e+12)
(-8.40398e+11 1.07793e+10 -1.58794e+11 -7.79478e+11 -6.80133e+09 -1.94022e+12)
(-9.19102e+11 7.41582e+09 -4.77235e+10 -8.36392e+11 9.56235e+09 -2.15542e+12)
(-9.60951e+11 1.74463e+09 4.39335e+10 -8.42441e+11 -4.02004e+10 -2.19605e+12)
(-9.64858e+11 -2.6044e+09 2.01218e+10 -8.23093e+11 -1.33498e+11 -2.06924e+12)
(-9.86672e+11 -4.32462e+09 -1.51326e+11 -8.41746e+11 -2.10919e+11 -2.0006e+12)
(-1.08913e+12 -1.20446e+09 -3.77745e+11 -9.57813e+11 -2.21492e+11 -2.24455e+12)
(-1.27338e+12 7.1228e+09 -4.90352e+11 -1.15728e+12 -1.46544e+11 -2.81685e+12)
(-1.45022e+12 1.6126e+10 -3.94644e+11 -1.33926e+12 -2.72883e+10 -3.39589e+12)
(-1.52542e+12 1.66612e+10 -1.62406e+11 -1.40574e+12 7.01411e+10 -3.62429e+12)
(-1.43915e+12 2.64106e+09 2.86043e+10 -1.30889e+12 8.59521e+10 -3.33319e+12)
(-1.23313e+12 -2.10876e+10 5.84258e+10 -1.10735e+12 1.65603e+10 -2.72237e+12)
(-9.94753e+11 -3.75713e+10 -2.69072e+10 -8.98908e+11 -1.05659e+11 -2.10889e+12)
(-7.91627e+11 -2.41245e+10 -1.06005e+11 -7.51692e+11 -2.2327e+11 -1.69629e+12)
(-6.80005e+11 1.7913e+10 -6.7987e+10 -7.41749e+11 -2.35449e+11 -1.74295e+12)
(-5.14126e+11 2.73209e+10 1.72547e+11 -8.64706e+11 -1.54064e+11 -2.53097e+12)
(-6.80244e+11 -1.36963e+10 -3.50529e+11 -1.08058e+12 4.34091e+11 -3.77952e+12)
(-1.56081e+12 -8.66677e+10 1.2199e+11 -1.66988e+12 2.69912e+10 -4.14312e+12)
(-1.68571e+12 -9.0201e+10 5.78188e+11 -1.70676e+12 -1.86617e+11 -3.92646e+12)
(-1.54729e+12 -7.82593e+10 6.5132e+11 -1.49367e+12 -3.24854e+11 -3.26191e+12)
(-1.3898e+12 -4.67255e+10 4.26891e+11 -1.30485e+12 -3.74845e+11 -2.72033e+12)
(-1.32078e+12 -8.60182e+09 1.25697e+11 -1.24858e+12 -2.85302e+11 -2.59386e+12)
(-1.34158e+12 1.86649e+10 -3.89895e+10 -1.3052e+12 -9.01378e+10 -2.82298e+12)
(-1.37036e+12 2.71135e+10 2.1727e+10 -1.36737e+12 1.16228e+11 -3.08102e+12)
(-1.32719e+12 1.84039e+10 2.3215e+11 -1.32922e+12 2.26865e+11 -3.06477e+12)
(-1.17999e+12 2.64165e+09 4.21602e+11 -1.15192e+12 2.03572e+11 -2.66923e+12)
(-9.62552e+11 -1.05356e+10 4.47504e+11 -8.89916e+11 9.58492e+10 -2.03571e+12)
(-7.68053e+11 -1.44323e+10 2.89474e+11 -6.66888e+11 -3.03948e+10 -1.48492e+12)
(-6.68207e+11 -7.18188e+09 5.19367e+10 -5.72952e+11 -1.05093e+11 -1.24765e+12)
(-6.7213e+11 4.80973e+09 -1.32617e+11 -6.10327e+11 -1.0137e+11 -1.33065e+12)
(-7.39054e+11 1.41179e+10 -1.95478e+11 -7.12718e+11 -4.68678e+10 -1.58564e+12)
(-8.26669e+11 1.63936e+10 -1.44592e+11 -8.15214e+11 1.71533e+10 -1.86618e+12)
(-8.99317e+11 9.52893e+09 -3.40126e+10 -8.73605e+11 4.62552e+10 -2.0559e+12)
(-9.32324e+11 -2.22467e+09 5.20923e+10 -8.70939e+11 6.8972e+09 -2.07318e+12)
(-9.28785e+11 -1.01684e+10 2.20502e+10 -8.33435e+11 -8.75379e+10 -1.93953e+12)
(-9.4903e+11 -8.36327e+09 -1.51814e+11 -8.41126e+11 -1.7387e+11 -1.87933e+12)
(-1.05811e+12 3.39026e+09 -3.74483e+11 -9.68451e+11 -1.89615e+11 -2.13861e+12)
(-1.25253e+12 1.80233e+10 -4.79955e+11 -1.19928e+12 -1.08625e+11 -2.71606e+12)
(-1.43635e+12 2.50803e+10 -3.80261e+11 -1.41069e+12 2.31016e+10 -3.28552e+12)
(-1.50959e+12 1.67757e+10 -1.52713e+11 -1.48179e+12 1.2956e+11 -3.4932e+12)
(-1.41978e+12 -6.06389e+09 2.46943e+10 -1.36669e+12 1.42959e+11 -3.1978e+12)
(-1.21805e+12 -3.31311e+10 3.81576e+10 -1.14899e+12 5.91392e+10 -2.61443e+12)
(-9.97787e+11 -4.86089e+10 -5.70703e+10 -9.4958e+11 -8.59444e+10 -2.06464e+12)
(-8.16843e+11 -3.28441e+10 -1.27322e+11 -8.28941e+11 -2.27129e+11 -1.72545e+12)
(-7.0292e+11 1.20838e+10 -5.77382e+10 -8.27133e+11 -2.49509e+11 -1.77416e+12)
(-4.99897e+11 2.31146e+10 1.93069e+11 -9.21938e+11 -1.39701e+11 -2.44327e+12)
(-5.30732e+11 -5.07393e+09 -3.28568e+11 -1.04841e+12 4.91403e+11 -2.88561e+12)
(-1.42291e+12 -8.55635e+10 7.30694e+10 -1.62342e+12 3.42495e+10 -3.6742e+12)
(-1.59746e+12 -9.44494e+10 4.92487e+11 -1.67883e+12 -1.89671e+11 -3.659e+12)
(-1.49605e+12 -8.40644e+10 5.60733e+11 -1.48988e+12 -3.32544e+11 -3.11858e+12)
(-1.36586e+12 -4.82271e+10 3.62102e+11 -1.32168e+12 -3.88568e+11 -2.66351e+12)
(-1.3146e+12 -3.20336e+09 9.75431e+10 -1.28527e+12 -3.03029e+11 -2.57538e+12)
(-1.34539e+12 2.79926e+10 -3.84314e+10 -1.36214e+12 -1.07391e+11 -2.8049e+12)
(-1.37502e+12 3.49103e+10 3.57148e+10 -1.43509e+12 1.01673e+11 -3.03992e+12)
(-1.32494e+12 2.12177e+10 2.45058e+11 -1.39029e+12 2.19185e+11 -2.99573e+12)
(-1.16779e+12 6.13156e+08 4.2608e+11 -1.19171e+12 2.06391e+11 -2.58314e+12)
(-9.41825e+11 -1.4614e+10 4.43503e+11 -9.05388e+11 1.06632e+11 -1.94725e+12)
(-7.45543e+11 -1.75324e+10 2.82667e+11 -6.68187e+11 -1.63444e+10 -1.41103e+12)
(-6.47776e+11 -7.9663e+09 4.97288e+10 -5.73191e+11 -9.48877e+10 -1.18834e+12)
(-6.52994e+11 6.30042e+09 -1.26676e+11 -6.16776e+11 -9.9869e+10 -1.27267e+12)
(-7.19502e+11 1.71697e+10 -1.82052e+11 -7.26411e+11 -5.18196e+10 -1.51794e+12)