/*--------------------------------*- C++ -*----------------------------------*\
| =========                 |                                                 |
| \\      /  F ield         | OpenFOAM: The Open Source CFD Toolbox           |
|  \\    /   O peration     | Version:  2106                                  |
|   \\  /    A nd           | Website:  www.openfoam.com                      |
|    \\/     M anipulation  |                                                 |
\*---------------------------------------------------------------------------*/
FoamFile
{
    version     2.0;
    format      ascii;
    arch        "LSB;label=32;scalar=64";
    class       volVectorField;
    location    "1350";
    object      D;
}
// * * * * * * * * * * * * * * * * * * * * * * * * * * * * * * * * * * * * * //

dimensions      [0 1 0 0 0 0 0];

internalField   nonuniform List<vector> 
9000
(
(-9.92256 -16.2171 -26.1756)
(1.33745 -15.7259 -19.6748)
(4.36597 -11.4477 -13.6435)
(3.80333 -6.0623 -7.10568)
(0.834624 -2.74537 -3.25284)
(-2.51124 -2.90259 -3.8077)
(-3.90836 -5.69403 -7.72332)
(-2.39554 -8.65834 -11.6832)
(0.622697 -9.4342 -12.5043)
(2.98834 -7.7738 -10.059)
(3.58379 -4.7939 -5.98642)
(2.476 -2.08053 -2.47932)
(0.564354 -0.809755 -1.01931)
(-1.1025 -1.24888 -1.77532)
(-1.84076 -2.80175 -3.89184)
(-1.45838 -4.42296 -6.09261)
(-0.235348 -5.12791 -7.1561)
(1.01324 -4.51488 -6.4042)
(1.15009 -3.13914 -4.38879)
(-0.362049 -2.34339 -3.02546)
(-2.62203 -3.31425 -4.18659)
(-3.72529 -5.96925 -7.8637)
(-2.4639 -8.6992 -11.697)
(0.117938 -9.63698 -12.872)
(2.06667 -8.73934 -11.3995)
(2.53792 -7.05093 -8.93801)
(1.91156 -5.64493 -7.13967)
(1.29288 -4.97987 -6.64232)
(1.83215 -4.42129 -6.48569)
(4.88052 -2.89617 -6.88274)
(-9.21549 -8.3198 -17.9862)
(0.797944 -8.8674 -12.2023)
(3.346 -6.56298 -8.286)
(2.89673 -3.37199 -4.2917)
(0.494795 -1.35301 -1.99233)
(-2.2227 -1.30656 -2.47731)
(-3.32671 -2.7442 -5.09311)
(-2.00952 -4.35568 -7.66118)
(0.534938 -4.87581 -8.10098)
(2.49829 -4.09775 -6.4231)
(2.97588 -2.56198 -3.75067)
(2.0497 -1.0816 -1.51489)
(0.474444 -0.318292 -0.634289)
(-0.892575 -0.489501 -1.16601)
(-1.50381 -1.30204 -2.54224)
(-1.20641 -2.15001 -3.96952)
(-0.216516 -2.46765 -4.6857)
(0.809306 -2.0965 -4.22059)
(0.921327 -1.41326 -2.88254)
(-0.345707 -1.08505 -1.9467)
(-2.24068 -1.63584 -2.69762)
(-3.15322 -2.99047 -5.14109)
(-2.05973 -4.37221 -7.67127)
(0.139827 -4.89877 -8.37817)
(1.78976 -4.5243 -7.33915)
(2.1977 -3.70228 -5.7144)
(1.69042 -2.9285 -4.58738)
(1.18333 -2.43667 -4.35738)
(1.65136 -1.95222 -4.35292)
(4.37418 -0.712615 -5.15759)
(-8.20133 -4.00594 -13.4846)
(0.254276 -5.26201 -8.64724)
(2.35422 -3.94823 -5.81199)
(2.02565 -1.86549 -2.98374)
(0.165698 -0.502464 -1.38133)
(-1.94679 -0.328262 -1.80121)
(-2.76788 -1.03569 -3.77227)
(-1.6381 -1.9376 -5.67014)
(0.445169 -2.34902 -5.93153)
(2.00894 -2.0722 -4.64509)
(2.36947 -1.32342 -2.67049)
(1.62635 -0.503776 -1.04863)
(0.385972 -0.00889753 -0.42643)
(-0.68517 -0.0335241 -0.827903)
(-1.17027 -0.447951 -1.83449)
(-0.952681 -0.881145 -2.87495)
(-0.189796 -0.989535 -3.40093)
(0.613265 -0.742312 -3.06484)
(0.696067 -0.41957 -2.08345)
(-0.328759 -0.325129 -1.40008)
(-1.85956 -0.629885 -1.9736)
(-2.58021 -1.27198 -3.80572)
(-1.6482 -1.93486 -5.67917)
(0.170171 -2.25726 -6.14341)
(1.51136 -2.17406 -5.34026)
(1.85331 -1.80698 -4.16005)
(1.4738 -1.35715 -3.36611)
(1.09198 -0.950133 -3.22325)
(1.49572 -0.523716 -3.21668)
(3.76977 0.565728 -3.93451)
(-7.04074 -1.83553 -10.0249)
(-0.263346 -3.41797 -6.22191)
(1.4109 -2.54434 -4.16256)
(1.20284 -0.999417 -2.09654)
(-0.143261 0.0390461 -0.940333)
(-1.6784 0.285354 -1.29391)
(-2.23077 -0.0430454 -2.80661)
(-1.28566 -0.587689 -4.2425)
(0.348745 -0.971622 -4.3878)
(1.52324 -0.978696 -3.38844)
(1.77261 -0.646002 -1.91177)
(1.21244 -0.169832 -0.716349)
(0.300448 0.183746 -0.262914)
(-0.483179 0.233177 -0.563105)
(-0.845358 0.0245709 -1.30703)
(-0.702383 -0.196397 -2.07219)
(-0.1576 -0.202453 -2.45419)
(0.427116 -0.0191561 -2.20142)
(0.479086 0.134387 -1.48068)
(-0.307645 0.136783 -0.992365)
(-1.47903 -0.0143888 -1.44819)
(-2.01102 -0.274648 -2.84447)
(-1.23882 -0.573099 -4.24876)
(0.201866 -0.814534 -4.53857)
(1.23547 -0.889118 -3.91296)
(1.51397 -0.738373 -3.05876)
(1.26685 -0.434536 -2.50015)
(1.01483 -0.0679118 -2.39728)
(1.35014 0.299712 -2.35355)
(3.1058 1.26198 -2.86428)
(-5.84348 -1.01796 -7.03304)
(-0.719177 -2.59077 -4.23853)
(0.549937 -1.82921 -2.81782)
(0.451294 -0.508738 -1.35461)
(-0.423031 0.383145 -0.548068)
(-1.42455 0.661409 -0.838585)
(-1.73026 0.50464 -1.97032)
(-0.96374 0.114669 -3.02871)
(0.246711 -0.28798 -3.08799)
(1.05706 -0.448313 -2.33471)
(1.20606 -0.311528 -1.27358)
(0.821609 0.00735568 -0.429432)
(0.219401 0.292948 -0.112699)
(-0.29472 0.372717 -0.3275)
(-0.54147 0.256404 -0.854187)
(-0.466398 0.127031 -1.3914)
(-0.123487 0.156757 -1.65205)
(0.257467 0.308097 -1.46519)
(0.281436 0.405624 -0.95904)
(-0.278754 0.401681 -0.631068)
(-1.1096 0.349789 -0.985762)
(-1.46523 0.275279 -2.01638)
(-0.849174 0.132482 -3.03094)
(0.230518 -0.103941 -3.18074)
(0.973555 -0.25809 -2.7058)
(1.19541 -0.181714 -2.12022)
(1.07753 0.085031 -1.75371)
(0.948614 0.439866 -1.67826)
(1.20526 0.749478 -1.5985)
(2.42206 1.57753 -1.89699)
(-4.68081 -1.06659 -4.49029)
(-1.08326 -2.36225 -2.59127)
(-0.196609 -1.51534 -1.68901)
(-0.205861 -0.24852 -0.711758)
(-0.665981 0.59119 -0.187163)
(-1.19554 0.874237 -0.422917)
(-1.28485 0.76735 -1.23823)
(-0.68473 0.415689 -1.9859)
(0.142126 -0.0290274 -1.98541)
(0.628645 -0.263101 -1.44461)
(0.692268 -0.192258 -0.730556)
(0.468399 0.0786514 -0.17735)
(0.144599 0.339966 0.0258184)
(-0.128306 0.425395 -0.119194)
(-0.271624 0.335175 -0.466812)
(-0.25596 0.226106 -0.81611)
(-0.0908832 0.251303 -0.976945)
(0.11125 0.38752 -0.843515)
(0.113984 0.492901 -0.510499)
(-0.239894 0.53015 -0.308219)
(-0.764518 0.543132 -0.57184)
(-0.965192 0.537468 -1.2939)
(-0.497217 0.428074 -1.98448)
(0.253115 0.15295 -2.02665)
(0.737605 -0.0361611 -1.67915)
(0.913307 0.0465677 -1.31078)
(0.914316 0.341869 -1.09791)
(0.892324 0.707077 -1.04295)
(1.0584 0.966121 -0.937461)
(1.75194 1.6513 -1.05169)
(-3.5955 -1.64097 -2.43398)
(-1.33929 -2.47177 -1.25999)
(-0.809844 -1.429 -0.755303)
(-0.75428 -0.130569 -0.159456)
(-0.867641 0.702965 0.141741)
(-0.998926 0.97454 -0.0502555)
(-0.907628 0.850948 -0.611887)
(-0.456874 0.475123 -1.11196)
(0.0378497 -0.0186287 -1.07662)
(0.251118 -0.279328 -0.715321)
(0.246977 -0.203209 -0.281747)
(0.163112 0.0793256 0.0385683)
(0.0776315 0.341519 0.149933)
(0.010526 0.421017 0.0591321)
(-0.0446143 0.321837 -0.146608)
(-0.0788023 0.194418 -0.347199)
(-0.0623839 0.19302 -0.430103)
(-0.00734972 0.321889 -0.338912)
(-0.0167429 0.465831 -0.138547)
(-0.190741 0.565053 -0.027651)
(-0.454114 0.620235 -0.209821)
(-0.527363 0.617079 -0.678772)
(-0.195693 0.474361 -1.1088)
(0.267558 0.140619 -1.07549)
(0.535586 -0.0598159 -0.833421)
(0.678409 0.0689337 -0.63244)
(0.783691 0.42812 -0.53443)
(0.846911 0.821626 -0.492945)
(0.911678 1.04397 -0.373366)
(1.11982 1.58553 -0.341721)
(-2.61261 -2.48617 -0.868255)
(-1.48558 -2.74736 -0.218868)
(-1.28551 -1.46101 0.00386153)
(-1.19001 -0.0981139 0.309738)
(-1.02675 0.747498 0.437249)
(-0.837788 1.00024 0.277501)
(-0.603846 0.82949 -0.0879753)
(-0.283013 0.401621 -0.397797)
(-0.064004 -0.136889 -0.349221)
(-0.0693735 -0.398176 -0.136661)
(-0.122795 -0.284506 0.0775658)
(-0.0895304 0.0361363 0.218183)
(0.0196942 0.311963 0.257791)
(0.119947 0.382701 0.207082)
(0.136135 0.260428 0.109094)
(0.0617399 0.0980888 0.021026)
(-0.0396035 0.0606238 -0.00432972)
(-0.0975461 0.184206 0.054477)
(-0.109334 0.375358 0.15872)
(-0.132668 0.539352 0.208994)
(-0.184248 0.621617 0.098874)
(-0.160061 0.587847 -0.168266)
(0.0492438 0.381508 -0.395887)
(0.27265 -0.0138 -0.316026)
(0.37058 -0.21468 -0.159795)
(0.49544 -0.0273128 -0.0814331)
(0.689205 0.40941 -0.0621088)
(0.814539 0.844972 -0.0265486)
(0.770212 1.04884 0.0971229)
(0.542625 1.45536 0.23451)
(-1.74782 -3.40856 0.235003)
(-1.5324 -3.07453 0.566406)
(-1.63085 -1.54399 0.611636)
(-1.51745 -0.114644 0.704304)
(-1.1445 0.74688 0.698923)
(-0.711213 0.98032 0.560907)
(-0.371928 0.754858 0.341869)
(-0.161268 0.268729 0.172767)
(-0.161947 -0.303623 0.217673)
(-0.33264 -0.553003 0.308911)
(-0.417553 -0.394326 0.35654)
(-0.289681 -0.0304654 0.363371)
(-0.028475 0.263523 0.348812)
(0.201257 0.328091 0.326407)
(0.271827 0.182076 0.306849)
(0.166129 -0.0173802 0.30002)
(-0.0233006 -0.0921982 0.314602)
(-0.161394 0.0246231 0.34927)
(-0.166596 0.257971 0.387945)
(-0.068297 0.478558 0.402891)
(0.0432374 0.577861 0.355826)
(0.135555 0.501788 0.24549)
(0.237246 0.224854 0.169792)
(0.268141 -0.224143 0.272624)
(0.241649 -0.42191 0.359712)
(0.363829 -0.179906 0.352907)
(0.631514 0.33332 0.324671)
(0.797826 0.82041 0.361874)
(0.640881 1.02581 0.482669)
(0.0324508 1.31288 0.689027)
(-1.01169 -4.26423 0.92628)
(-1.49799 -3.37925 1.13296)
(-1.86039 -1.6391 1.09016)
(-1.74641 -0.157802 1.0323)
(-1.22373 0.717588 0.927004)
(-0.615523 0.936267 0.802076)
(-0.205483 0.66201 0.688314)
(-0.0863808 0.124025 0.618745)
(-0.254845 -0.468415 0.648152)
(-0.542571 -0.701733 0.641863)
(-0.64305 -0.505052 0.566418)
(-0.440972 -0.10552 0.477284)
(-0.0665811 0.206044 0.423411)
(0.257867 0.269914 0.420115)
(0.366884 0.107376 0.45509)
(0.237495 -0.12286 0.503815)
(-0.0136038 -0.231531 0.543966)
(-0.202832 -0.124924 0.561065)
(-0.194111 0.138252 0.558157)
(-0.000978558 0.401614 0.557029)
(0.229395 0.511352 0.564427)
(0.363506 0.394389 0.572823)
(0.372235 0.053836 0.606987)
(0.25466 -0.435298 0.715287)
(0.145202 -0.630239 0.747241)
(0.279154 -0.346389 0.68492)
(0.608863 0.233458 0.634005)
(0.799202 0.777489 0.679783)
(0.531307 1.00365 0.794255)
(-0.401175 1.18971 1.03911)
(-0.41038 -4.95217 1.27075)
(-1.4044 -3.6171 1.51736)
(-1.99217 -1.72687 1.45872)
(-1.88946 -0.215299 1.30053)
(-1.26814 0.671074 1.1221)
(-0.545561 0.882839 1.0039)
(-0.0953785 0.572611 0.962438)
(-0.0510859 -0.00447455 0.959193)
(-0.341672 -0.603103 0.965961)
(-0.705243 -0.82094 0.882545)
(-0.807967 -0.600315 0.718777)
(-0.549081 -0.178947 0.563681)
(-0.0947284 0.14679 0.48267)
(0.294257 0.216482 0.49176)
(0.42751 0.0483852 0.562651)
(0.28049 -0.202062 0.646753)
(-0.0102331 -0.338768 0.701286)
(-0.226729 -0.246663 0.705787)
(-0.198833 0.0310978 0.679039)
(0.0656784 0.321553 0.675328)
(0.377034 0.437439 0.728898)
(0.530937 0.288206 0.824659)
(0.460787 -0.101709 0.934818)
(0.233572 -0.615594 1.0369)
(0.0763303 -0.809712 1.02554)
(0.234692 -0.500188 0.930128)
(0.617724 0.132171 0.875003)
(0.820431 0.735036 0.935038)
(0.44901 0.998016 1.04306)
(-0.749815 1.09958 1.30316)
(0.0550944 -5.40939 1.34208)
(-1.27409 -3.7657 1.75391)
(-2.0449 -1.80047 1.73311)
(-1.95995 -0.281865 1.51425)
(-1.28184 0.614219 1.28484)
(-0.495735 0.82874 1.16935)
(-0.0314308 0.497894 1.17451)
(-0.0472529 -0.103353 1.21153)
(-0.421313 -0.695685 1.19248)
(-0.827365 -0.900842 1.04939)
(-0.921991 -0.672342 0.824407)
(-0.620536 -0.244845 0.626408)
(-0.113368 0.0904608 0.528017)
(0.315129 0.172291 0.544899)
(0.460494 0.010459 0.637795)
(0.300338 -0.248393 0.742056)
(-0.0126673 -0.406639 0.802626)
(-0.238112 -0.333322 0.798085)
(-0.187996 -0.0561554 0.759799)
(0.12814 0.246273 0.76194)
(0.48975 0.365537 0.853567)
(0.646393 0.195754 1.01134)
(0.510751 -0.22662 1.17106)
(0.206791 -0.750528 1.2603)
(0.0298702 -0.946278 1.2158)
(0.222757 -0.627089 1.10359)
(0.653404 0.0428072 1.05679)
(0.862271 0.703534 1.13503)
(0.400668 1.01416 1.239)
(-1.00538 1.04107 1.49747)
(0.389502 -5.60697 1.21682)
(-1.12741 -3.81903 1.87354)
(-2.03622 -1.86078 1.92568)
(-1.97084 -0.356905 1.67698)
(-1.26903 0.549882 1.41546)
(-0.460769 0.777366 1.30088)
(-0.0036033 0.441027 1.33312)
(-0.0666948 -0.169841 1.39048)
(-0.492403 -0.745436 1.3456)
(-0.915159 -0.941166 1.15794)
(-0.994414 -0.719632 0.892639)
(-0.661837 -0.300698 0.669017)
(-0.123253 0.0394023 0.560925)
(0.324783 0.138656 0.582693)
(0.472334 -0.0061096 0.687601)
(0.302176 -0.262239 0.800988)
(-0.0202403 -0.435824 0.861645)
(-0.241615 -0.384996 0.850455)
(-0.168364 -0.12177 0.808475)
(0.183132 0.17944 0.820712)
(0.571188 0.300234 0.942315)
(0.718499 0.121917 1.14185)
(0.53018 -0.31646 1.33107)
(0.176637 -0.83768 1.40496)
(0.0011682 -1.03718 1.33638)
(0.235707 -0.722055 1.21883)
(0.710515 -0.028268 1.18781)
(0.924227 0.687049 1.28615)
(0.39144 1.04925 1.38977)
(-1.15995 1.00078 1.63354)
(0.602955 -5.54586 0.969062)
(-0.981296 -3.78301 1.90306)
(-1.98174 -1.91285 2.04553)
(-1.93404 -0.442676 1.79049)
(-1.2339 0.47757 1.51337)
(-0.436149 0.727658 1.39982)
(-0.00274189 0.399113 1.44461)
(-0.101655 -0.208647 1.50745)
(-0.553187 -0.759095 1.43925)
(-0.97362 -0.947865 1.22039)
(-1.03322 -0.744974 0.930986)
(-0.678871 -0.346571 0.694502)
(-0.125401 -0.00604082 0.582663)
(0.326716 0.114378 0.607613)
(0.468677 -0.00468368 0.717586)
(0.290639 -0.248751 0.832419)
(-0.0321717 -0.432237 0.889158)
(-0.241136 -0.406589 0.872836)
(-0.145818 -0.167895 0.831554)
(0.227693 0.12146 0.854787)
(0.624498 0.242372 0.99817)
(0.755051 0.065983 1.22326)
(0.526631 -0.374335 1.42712)
(0.145739 -0.88271 1.48642)
(-0.0134265 -1.08724 1.40223)
(0.2666 -0.786464 1.28727)
(0.783263 -0.0798871 1.27542)
(1.00433 0.684812 1.39338)
(0.42436 1.09451 1.50007)
(-1.20592 0.956946 1.71614)
(0.709414 -5.25225 0.665488)
(-0.848899 -3.67186 1.86461)
(-1.89481 -1.9634 2.09878)
(-1.8602 -0.542866 1.85473)
(-1.18056 0.39423 1.57677)
(-0.418354 0.675056 1.46587)
(-0.0209455 0.36494 1.51258)
(-0.145031 -0.229377 1.5701)
(-0.601388 -0.747941 1.48316)
(-1.00608 -0.930605 1.24553)
(-1.04455 -0.753837 0.945009)
(-0.676574 -0.384325 0.705139)
(-0.121082 -0.0470814 0.594091)
(0.323385 0.0963777 0.621219)
(0.454019 0.0088825 0.731488)
(0.269671 -0.21609 0.842632)
(-0.0475459 -0.404915 0.893011)
(-0.239644 -0.40584 0.872524)
(-0.125177 -0.199123 0.833805)
(0.259123 0.0704392 0.866347)
(0.651951 0.190096 1.02301)
(0.762437 0.023364 1.26042)
(0.506733 -0.408326 1.46801)
(0.117013 -0.896277 1.51605)
(-0.0162644 -1.10584 1.42463)
(0.309562 -0.825798 1.31796)
(0.865572 -0.114535 1.32555)
(1.09891 0.69252 1.46011)
(0.499778 1.13721 1.57114)
(-1.13643 0.883298 1.74201)
(0.724524 -4.77194 0.361257)
(-0.739872 -3.50498 1.77523)
(-1.78681 -2.01916 2.0889)
(-1.75887 -0.661471 1.86782)
(-1.1131 0.295155 1.60227)
(-0.404937 0.61257 1.49667)
(-0.0516754 0.328583 1.53756)
(-0.190416 -0.244371 1.58216)
(-0.634097 -0.725541 1.48292)
(-1.01399 -0.900848 1.23875)
(-1.03249 -0.753066 0.938308)
(-0.658787 -0.416895 0.702391)
(-0.111825 -0.0859969 0.595508)
(0.316092 0.0803119 0.624001)
(0.431574 0.0272156 0.731142)
(0.242483 -0.174063 0.83528)
(-0.0652552 -0.364429 0.878119)
(-0.239092 -0.391807 0.854236)
(-0.110173 -0.221301 0.818254)
(0.274885 0.0231137 0.85645)
(0.654687 0.139852 1.01737)
(0.745313 -0.0128986 1.25567)
(0.476008 -0.429373 1.45886)
(0.0936969 -0.891672 1.50104)
(-0.00822292 -1.10474 1.4113)
(0.359946 -0.847771 1.31752)
(0.951063 -0.13702 1.34268)
(1.20233 0.70346 1.48793)
(0.614859 1.16257 1.60043)
(-0.945934 0.753212 1.69939)
(0.66334 -4.16392 0.096906)
(-0.661085 -3.30419 1.64675)
(-1.66757 -2.08567 2.01692)
(-1.63874 -0.801834 1.82604)
(-1.03574 0.175009 1.58457)
(-0.394507 0.532001 1.48742)
(-0.0897034 0.278983 1.5168)
(-0.23203 -0.266787 1.54335)
(-0.647693 -0.705912 1.44004)
(-0.996868 -0.87036 1.20223)
(-0.998968 -0.749821 0.912585)
(-0.62823 -0.447616 0.686883)
(-0.0994442 -0.125604 0.586548)
(0.304942 0.0611908 0.61525)
(0.403266 0.0422751 0.716395)
(0.211598 -0.13302 0.811395)
(-0.0839252 -0.321659 0.846592)
(-0.240388 -0.373703 0.820262)
(-0.103504 -0.240527 0.786237)
(0.272493 -0.0242665 0.824957)
(0.632574 0.0873643 0.980271)
(0.706483 -0.0507671 1.20876)
(0.438838 -0.449466 1.40103)
(0.0794293 -0.88293 1.44446)
(0.0113937 -1.09624 1.3665)
(0.414373 -0.860795 1.29032)
(1.03296 -0.153296 1.32972)
(1.30667 0.70958 1.47649)
(0.763162 1.15567 1.58144)
(-0.630827 0.543876 1.56828)
(0.538381 -3.49353 -0.103396)
(-0.617449 -3.09127 1.48572)
(-1.54598 -2.16643 1.88161)
(-1.50797 -0.965714 1.72379)
(-0.952855 0.0290531 1.51623)
(-0.386661 0.425377 1.43058)
(-0.13097 0.205608 1.44404)
(-0.264618 -0.308762 1.44941)
(-0.637823 -0.701902 1.35213)
(-0.952311 -0.849929 1.13509)
(-0.943868 -0.750656 0.867757)
(-0.586579 -0.479583 0.658417)
(-0.0860835 -0.168699 0.566112)
(0.288854 0.0340268 0.592964)
(0.369805 0.0461816 0.685051)
(0.17896 -0.102871 0.769423)
(-0.101839 -0.286761 0.79787)
(-0.24341 -0.35993 0.770644)
(-0.106923 -0.262282 0.737511)
(0.249427 -0.0750699 0.770534)
(0.584162 0.0286441 0.909219)
(0.646916 -0.097868 1.11676)
(0.398547 -0.47997 1.29215)
(0.0783414 -0.88321 1.34545)
(0.0449051 -1.09172 1.29128)
(0.470714 -0.872704 1.23857)
(1.10396 -0.169386 1.28811)
(1.40153 0.702617 1.4234)
(0.934352 1.10344 1.50367)
(-0.19019 0.240306 1.32152)
(0.358275 -2.8254 -0.232147)
(-0.612666 -2.88558 1.29372)
(-1.43044 -2.2621 1.67966)
(-1.3745 -1.15223 1.55361)
(-0.869126 -0.145368 1.3875)
(-0.381887 0.286706 1.3157)
(-0.172412 0.100362 1.30953)
(-0.28336 -0.379478 1.29224)
(-0.599459 -0.723557 1.21308)
(-0.876201 -0.848137 1.03354)
(-0.865221 -0.760652 0.802091)
(-0.534606 -0.515033 0.616031)
(-0.0742512 -0.217459 0.532355)
(0.265626 -0.0054289 0.553791)
(0.330804 0.0321246 0.632829)
(0.146056 -0.0920795 0.705276)
(-0.116877 -0.268198 0.72888)
(-0.247046 -0.357218 0.703371)
(-0.121324 -0.290616 0.6704)
(0.203096 -0.131416 0.690711)
(0.506762 -0.0389475 0.80015)
(0.565913 -0.160076 0.974055)
(0.357557 -0.52991 1.12623)
(0.0951287 -0.903218 1.19939)
(0.0962483 -1.10034 1.18376)
(0.52803 -0.889638 1.16271)
(1.15616 -0.190319 1.21791)
(1.47388 0.675417 1.32414)
(1.11415 0.996883 1.35274)
(0.373551 -0.160962 0.92654)
(0.127175 -2.21684 -0.297375)
(-0.649761 -2.7018 1.06778)
(-1.32916 -2.36947 1.40585)
(-1.24617 -1.35652 1.30627)
(-0.789552 -0.346936 1.18627)
(-0.381441 0.114173 1.12936)
(-0.211796 -0.0401509 1.10008)
(-0.283843 -0.482979 1.06015)
(-0.527091 -0.776298 1.01331)
(-0.763003 -0.870004 0.891178)
(-0.759527 -0.782518 0.712388)
(-0.472378 -0.554724 0.558116)
(-0.0668349 -0.27278 0.482722)
(0.232056 -0.0598067 0.493026)
(0.284955 -0.00453969 0.553383)
(0.114044 -0.106496 0.612422)
(-0.126509 -0.271671 0.63422)
(-0.249282 -0.36973 0.614608)
(-0.146824 -0.327352 0.581989)
(0.130893 -0.193276 0.58202)
(0.396665 -0.115507 0.647546)
(0.461393 -0.239895 0.772454)
(0.317574 -0.604073 0.893845)
(0.135056 -0.949479 0.998127)
(0.170869 -1.12767 1.03942)
(0.586493 -0.915014 1.06161)
(1.1811 -0.219061 1.11798)
(1.50821 0.623556 1.17206)
(1.2846 0.833558 1.11063)
(1.05412 -0.648514 0.347642)
(-0.154962 -1.71206 -0.320202)
(-0.731313 -2.54774 0.801112)
(-1.25027 -2.48019 1.05321)
(-1.13084 -1.56796 0.970956)
(-0.719401 -0.56798 0.898339)
(-0.387193 -0.0871274 0.855402)
(-0.247576 -0.21183 0.799389)
(-0.262128 -0.615592 0.73836)
(-0.415064 -0.858707 0.740207)
(-0.606289 -0.915369 0.699222)
(-0.622247 -0.815617 0.594251)
(-0.399514 -0.597322 0.482586)
(-0.0670539 -0.33357 0.414065)
(0.184177 -0.129047 0.404696)
(0.230261 -0.0649009 0.438421)
(0.0838554 -0.147898 0.48208)
(-0.127847 -0.298844 0.506416)
(-0.247355 -0.398067 0.498978)
(-0.182849 -0.371241 0.468387)
(0.0303429 -0.257524 0.440211)
(0.249541 -0.197228 0.444622)
(0.330354 -0.334506 0.501405)
(0.279825 -0.700733 0.582534)
(0.20384 -1.02225 0.730349)
(0.275437 -1.17426 0.851512)
(0.647234 -0.948561 0.93308)
(1.16999 -0.255427 0.986209)
(1.48706 0.547314 0.95853)
(1.42491 0.62056 0.756309)
(1.84122 -1.19292 -0.451387)
(-0.491229 -1.33741 -0.3313)
(-0.859334 -2.42202 0.484119)
(-1.20155 -2.57879 0.613502)
(-1.03616 -1.76782 0.535781)
(-0.664054 -0.79151 0.507867)
(-0.401431 -0.301792 0.475513)
(-0.278803 -0.39964 0.388715)
(-0.214927 -0.762797 0.309768)
(-0.25813 -0.959793 0.378736)
(-0.399534 -0.976908 0.447109)
(-0.44853 -0.854888 0.442466)
(-0.315495 -0.638802 0.38714)
(-0.078311 -0.395978 0.322854)
(0.117629 -0.209098 0.281814)
(0.16436 -0.144741 0.278019)
(0.0562781 -0.212146 0.303609)
(-0.117815 -0.345784 0.33635)
(-0.238011 -0.438121 0.349964)
(-0.228222 -0.417079 0.325071)
(-0.100622 -0.316928 0.260574)
(0.0610618 -0.274806 0.183651)
(0.169525 -0.433339 0.148416)
(0.245303 -0.808835 0.177379)
(0.307341 -1.11293 0.382188)
(0.417273 -1.2339 0.611677)
(0.71207 -0.985447 0.774343)
(1.11416 -0.294997 0.819937)
(1.39222 0.454041 0.673283)
(1.51285 0.378059 0.266532)
(2.72066 -1.74349 -1.50432)
(-0.885856 -1.09816 -0.366504)
(-1.0348 -2.31177 0.105738)
(-1.19003 -2.64006 0.077911)
(-0.969311 -1.9263 -0.0113995)
(-0.628717 -0.987632 -0.0015309)
(-0.426597 -0.500057 -0.029573)
(-0.305059 -0.573438 -0.151919)
(-0.139908 -0.895453 -0.243894)
(-0.052222 -1.0556 -0.0874424)
(-0.13726 -1.03774 0.123333)
(-0.234214 -0.889686 0.251577)
(-0.220047 -0.67193 0.269602)
(-0.103906 -0.452616 0.205524)
(0.0282414 -0.290395 0.116852)
(0.0849419 -0.23239 0.0612613)
(0.0319941 -0.286929 0.0652204)
(-0.0934566 -0.401065 0.113947)
(-0.217902 -0.47976 0.160494)
(-0.281293 -0.454777 0.147364)
(-0.263257 -0.359088 0.0383724)
(-0.172206 -0.331557 -0.143528)
(-0.0237494 -0.515018 -0.300227)
(0.21504 -0.904466 -0.338031)
(0.451004 -1.20076 -0.0617858)
(0.603392 -1.29166 0.310793)
(0.783054 -1.01555 0.58269)
(1.0058 -0.328145 0.616389)
(1.20648 0.360897 0.305044)
(1.52695 0.143553 -0.382719)
(3.67473 -2.22445 -2.83922)
(-1.34163 -0.976776 -0.461787)
(-1.25687 -2.19017 -0.344718)
(-1.22121 -2.62568 -0.561588)
(-0.936493 -1.99876 -0.681525)
(-0.618014 -1.10935 -0.645034)
(-0.464958 -0.6331 -0.678074)
(-0.326417 -0.683028 -0.841711)
(-0.0361011 -0.965203 -0.940217)
(0.204534 -1.1051 -0.674237)
(0.183467 -1.06868 -0.283154)
(0.0228741 -0.902607 0.0167097)
(-0.113566 -0.685872 0.12838)
(-0.146588 -0.491828 0.0589964)
(-0.0871888 -0.356162 -0.0974267)
(-0.00970782 -0.306236 -0.222652)
(0.0115783 -0.349112 -0.244807)
(-0.0523928 -0.443603 -0.170725)
(-0.184132 -0.50538 -0.0761993)
(-0.340118 -0.468402 -0.0689221)
(-0.457475 -0.365279 -0.230582)
(-0.451653 -0.341151 -0.544733)
(-0.250388 -0.543524 -0.858224)
(0.190389 -0.946401 -0.980065)
(0.639022 -1.24879 -0.616899)
(0.839105 -1.32181 -0.0597024)
(0.861791 -1.023 0.356261)
(0.83898 -0.339245 0.373278)
(0.91626 0.297969 -0.157428)
(1.44939 -0.0229195 -1.2141)
(4.68205 -2.52994 -4.47437)
(-1.85683 -0.932889 -0.647826)
(-1.5219 -2.0138 -0.874992)
(-1.29833 -2.47986 -1.30987)
(-0.942434 -1.92105 -1.48189)
(-0.635528 -1.08764 -1.43374)
(-0.5182 -0.627709 -1.48393)
(-0.343384 -0.652289 -1.69581)
(0.0956564 -0.898768 -1.79321)
(0.510665 -1.04529 -1.39428)
(0.561274 -1.02513 -0.780762)
(0.321418 -0.868351 -0.265261)
(0.00241691 -0.665963 -0.0369693)
(-0.207983 -0.497034 -0.118602)
(-0.22994 -0.380594 -0.366673)
(-0.120088 -0.331939 -0.582601)
(-0.00454057 -0.361766 -0.636192)
(0.00660272 -0.440224 -0.52576)
(-0.134941 -0.48834 -0.365316)
(-0.402694 -0.435171 -0.326609)
(-0.681247 -0.309088 -0.549108)
(-0.775289 -0.264722 -1.02619)
(-0.508287 -0.463287 -1.53712)
(0.173302 -0.870363 -1.76246)
(0.87325 -1.19906 -1.29562)
(1.12624 -1.28544 -0.505868)
(0.948558 -0.986022 0.094961)
(0.610769 -0.30609 0.089502)
(0.514746 0.311918 -0.723705)
(1.26923 -0.0321257 -2.24549)
(5.71617 -2.51698 -6.4126)
(-2.42199 -0.90481 -0.944279)
(-1.82264 -1.71951 -1.48637)
(-1.42154 -2.12383 -2.16491)
(-0.989898 -1.60323 -2.41234)
(-0.68339 -0.82518 -2.37053)
(-0.587046 -0.379542 -2.45224)
(-0.356802 -0.371507 -2.7206)
(0.252335 -0.590026 -2.80897)
(0.860266 -0.784849 -2.25278)
(0.988801 -0.843394 -1.37219)
(0.65518 -0.752475 -0.594183)
(0.124835 -0.593555 -0.22506)
(-0.288005 -0.446067 -0.326989)
(-0.398429 -0.326811 -0.693134)
(-0.244878 -0.259195 -1.02299)
(-0.0161319 -0.270639 -1.11393)
(0.0830151 -0.342781 -0.955073)
(-0.0704083 -0.391067 -0.708809)
(-0.46724 -0.324082 -0.626023)
(-0.930071 -0.154317 -0.917598)
(-1.13647 -0.0465709 -1.59071)
(-0.79107 -0.192306 -2.34302)
(0.166584 -0.581005 -2.69232)
(1.15212 -0.96633 -2.10345)
(1.46136 -1.1279 -1.02857)
(1.04139 -0.876935 -0.198534)
(0.322392 -0.199167 -0.234136)
(0.00498893 0.471014 -1.39942)
(0.98542 0.244139 -3.48498)
(6.74169 -1.99428 -8.63303)
(-3.01755 -0.812178 -1.35439)
(-2.14831 -1.21956 -2.17112)
(-1.58755 -1.4472 -3.11547)
(-1.07947 -0.918849 -3.464)
(-0.76209 -0.185433 -3.44938)
(-0.671034 0.258418 -3.57884)
(-0.367726 0.315763 -3.91319)
(0.428661 0.113817 -3.98534)
(1.24262 -0.193618 -3.24627)
(1.45193 -0.434758 -2.05318)
(1.01228 -0.509194 -0.966035)
(0.248872 -0.44544 -0.432527)
(-0.384532 -0.309975 -0.563407)
(-0.587689 -0.143686 -1.0749)
(-0.380594 -0.0167667 -1.54274)
(-0.0231833 0.00132675 -1.67726)
(0.17424 -0.0835134 -1.45759)
(0.00706879 -0.161774 -1.10497)
(-0.532531 -0.0930786 -0.965218)
(-1.19686 0.149524 -1.33491)
(-1.52332 0.394068 -2.23868)
(-1.08744 0.389806 -3.27669)
(0.174132 0.0616892 -3.76942)
(1.4702 -0.428337 -3.03706)
(1.83487 -0.774727 -1.62203)
(1.13555 -0.661658 -0.518574)
(-0.020276 0.0205086 -0.595893)
(-0.598499 0.874593 -2.18759)
(0.607878 0.991149 -4.93135)
(7.70761 -0.700548 -11.0888)
(-3.61473 -0.558137 -1.86371)
(-2.48714 -0.39084 -2.92616)
(-1.7905 -0.290322 -4.16263)
(-1.20983 0.318149 -4.64919)
(-0.870674 1.03262 -4.69233)
(-0.768829 1.5034 -4.89239)
(-0.377507 1.64309 -5.30622)
(0.617868 1.44333 -5.35461)
(1.64385 0.920783 -4.39561)
(1.93166 0.328093 -2.83252)
(1.37652 -0.0754958 -1.38228)
(0.368279 -0.191444 -0.658468)
(-0.493896 -0.0495151 -0.828507)
(-0.790077 0.241566 -1.51718)
(-0.521989 0.498689 -2.15174)
(-0.0258021 0.566394 -2.33786)
(0.275973 0.435694 -2.0432)
(0.0929779 0.273674 -1.56107)
(-0.598321 0.318609 -1.35247)
(-1.47314 0.678936 -1.81669)
(-1.92024 1.1826 -2.99648)
(-1.38233 1.46849 -4.37044)
(0.201185 1.27168 -5.02427)
(1.81983 0.595037 -4.11211)
(2.2329 -0.122145 -2.28738)
(1.22432 -0.296642 -0.862812)
(-0.407997 0.408771 -1.0067)
(-1.2729 1.67606 -3.12321)
(0.15286 2.49287 -6.63096)
(8.53888 1.7468 -13.7753)
(-4.18337 -0.0271831 -2.45689)
(-2.83369 0.952888 -3.84219)
(-2.02531 1.59868 -5.45256)
(-1.37878 2.411 -6.17595)
(-1.00728 3.16073 -6.35706)
(-0.879531 3.71623 -6.68807)
(-0.388583 4.00046 -7.2177)
(0.813913 3.78539 -7.22369)
(2.05276 2.87316 -5.93483)
(2.41128 1.64729 -3.84842)
(1.73267 0.645529 -1.90363)
(0.476718 0.213205 -0.92891)
(-0.612969 0.395095 -1.15982)
(-0.998401 0.943559 -2.09782)
(-0.663913 1.45235 -2.96656)
(-0.0238805 1.60487 -3.22487)
(0.384059 1.37201 -2.82442)
(0.182318 1.03394 -2.1644)
(-0.665882 1.01157 -1.87341)
(-1.75269 1.56759 -2.49172)
(-2.31387 2.53921 -4.06901)
(-1.66183 3.36136 -5.89359)
(0.254527 3.40889 -6.73484)
(2.19722 2.39435 -5.52706)
(2.64503 0.988445 -3.11485)
(1.30245 0.281465 -1.26616)
(-0.832927 1.06013 -1.55848)
(-1.99988 3.14326 -4.4566)
(-0.37365 5.23667 -8.99179)
(9.12846 5.98098 -17.1229)
(-4.70659 0.928028 -3.17404)
(-3.19782 3.13404 -5.37525)
(-2.2916 4.6732 -7.67981)
(-1.58263 5.92541 -8.9777)
(-1.16818 6.83209 -9.56643)
(-1.00401 7.59216 -10.2367)
(-0.406089 8.13884 -11.0111)
(1.01364 7.88226 -10.9052)
(2.46814 6.25576 -8.88609)
(2.88614 3.89463 -5.72075)
(2.07403 1.82876 -2.8102)
(0.569759 0.848226 -1.36759)
(-0.742026 1.1316 -1.73102)
(-1.21021 2.17221 -3.16568)
(-0.80383 3.14952 -4.50152)
(-0.0165861 3.45128 -4.90438)
(0.497194 3.01687 -4.29423)
(0.272292 2.34027 -3.29632)
(-0.73793 2.18084 -2.8922)
(-2.03602 3.0855 -3.89196)
(-2.70127 4.90529 -6.30248)
(-1.92108 6.68811 -8.97883)
(0.341427 7.16021 -10.0888)
(2.61004 5.50574 -8.16283)
(3.07526 2.83772 -4.53065)
(1.37254 1.1837 -1.89793)
(-1.29334 2.16462 -2.62599)
(-2.78307 5.81243 -7.20888)
(-1.00091 10.1769 -13.7405)
(9.3333 13.171 -23.1989)
(-21.2553 -37.2734 -70.8585)
(1.34384 -37.0945 -53.8103)
(9.27296 -27.0137 -35.9089)
(8.38721 -14.0882 -18.0855)
(1.58131 -6.09883 -7.80209)
(-6.25184 -6.2067 -9.7112)
(-9.53007 -12.4288 -20.9539)
(-5.85144 -19.2443 -32.136)
(1.385 -21.2079 -34.2399)
(7.01467 -17.6382 -27.2006)
(8.45911 -10.944 -15.7751)
(5.89353 -4.71382 -6.14506)
(1.43373 -1.72228 -2.33482)
(-2.47066 -2.67152 -4.62326)
(-4.23245 -6.22314 -10.5652)
(-3.4061 -9.93097 -16.7222)
(-0.611949 -11.4811 -19.7853)
(2.28706 -10.0033 -17.7161)
(2.60114 -6.87085 -11.8485)
(-0.995022 -5.06846 -7.67188)
(-6.40329 -7.18861 -10.7406)
(-9.07818 -13.0862 -21.1628)
(-5.99618 -19.2599 -32.0871)
(0.307078 -21.4894 -35.2401)
(5.10588 -19.5792 -30.8162)
(6.39666 -15.7453 -23.7523)
(5.00302 -12.4895 -18.8269)
(3.48225 -10.8992 -17.9413)
(4.84558 -9.72766 -18.6191)
(11.078 -6.07295 -19.2489)
(-20.0182 -26.9817 -55.7989)
(-0.00242019 -28.4368 -40.6121)
(6.66866 -20.7859 -26.78)
(6.06597 -10.5606 -13.4862)
(0.712097 -4.17302 -5.91196)
(-5.51279 -3.98775 -7.62688)
(-8.0372 -8.44822 -16.4791)
(-4.85545 -13.5262 -25.1197)
(1.17235 -15.2185 -26.5272)
(5.77332 -12.8291 -20.8761)
(6.91488 -8.01553 -11.9818)
(4.81385 -3.36661 -4.60941)
(1.21204 -1.00697 -1.76646)
(-1.93165 -1.59572 -3.58851)
(-3.37257 -4.19228 -8.17289)
(-2.76224 -6.90186 -12.9152)
(-0.56376 -7.93345 -15.3092)
(1.75866 -6.74427 -13.7503)
(1.99867 -4.50853 -9.20269)
(-0.974644 -3.32375 -5.95683)
(-5.44115 -4.89932 -8.39781)
(-7.61218 -9.0908 -16.5987)
(-4.95399 -13.4964 -25.103)
(0.365 -15.23 -27.3846)
(4.38876 -14.0302 -23.8136)
(5.51985 -11.3152 -18.3676)
(4.44811 -8.86579 -14.6569)
(3.24056 -7.46211 -14.1022)
(4.43092 -6.35134 -14.7224)
(9.91958 -3.1736 -15.6528)
(-18.1332 -19.6179 -42.2651)
(-1.39552 -22.2601 -29.9109)
(4.05023 -16.211 -19.5559)
(3.74544 -7.86859 -9.81379)
(-0.156386 -2.61028 -4.32887)
(-4.75334 -2.21291 -5.7783)
(-6.51717 -5.41802 -12.5748)
(-3.84698 -9.27282 -19.1096)
(0.936505 -10.8161 -19.9595)
(4.46333 -9.30699 -15.5347)
(5.29464 -5.84644 -8.81373)
(3.69026 -2.3325 -3.32397)
(0.986037 -0.437344 -1.2385)
(-1.3716 -0.777029 -2.62274)
(-2.47977 -2.68969 -6.05038)
(-2.08134 -4.68809 -9.58562)
(-0.490068 -5.36535 -11.3679)
(1.22477 -4.38853 -10.204)
(1.37339 -2.75514 -6.81861)
(-0.94837 -1.94681 -4.43967)
(-4.42026 -3.08152 -6.37702)
(-6.05842 -6.03544 -12.67)
(-3.83712 -9.20303 -19.1033)
(0.443411 -10.6273 -20.6246)
(3.6267 -9.93644 -17.8287)
(4.58653 -7.97441 -13.8103)
(3.87691 -6.06399 -11.137)
(3.0293 -4.80231 -10.7738)
(4.05092 -3.81387 -11.2068)
(8.54802 -1.04662 -11.9281)
(-15.8755 -15.2135 -30.5127)
(-2.65743 -18.3499 -21.3138)