/*--------------------------------*- C++ -*----------------------------------*\
| =========                 |                                                 |
| \\      /  F ield         | OpenFOAM: The Open Source CFD Toolbox           |
|  \\    /   O peration     | Version:  2106                                  |
|   \\  /    A nd           | Website:  www.openfoam.com                      |
|    \\/     M anipulation  |                                                 |
\*---------------------------------------------------------------------------*/
FoamFile
{
    version     2.0;
    format      ascii;
    arch        "LSB;label=32;scalar=64";
    class       volSymmTensorField;
    location    "1350";
    object      epsilon;
}
// * * * * * * * * * * * * * * * * * * * * * * * * * * * * * * * * * * * * * //

dimensions      [0 0 0 0 0 0 0];

internalField   nonuniform List<symmTensor> 
9000
(
(95539.8 2013.53 -34105.6 150907 -36146.8 -485170)
(21432.8 -235.387 16102.3 132848 -38004.3 -367425)
(3698.81 -201.122 43524.1 94060.8 -27988.1 -247762)
(-5297.02 -136.238 38269.4 51059.6 -14637.4 -125956)
(-9471.85 -89.3016 8513.33 25676.5 -6329.17 -55274.7)
(-7114.48 -23.5883 -25260.6 29548.4 -6397.65 -67594.5)
(173.556 22.8411 -39502.7 55820.5 -12789.6 -143386)
(6796.59 45.0381 -24203.2 82222.5 -19795 -219096)
(8075.81 2.59935 6237.4 87280.7 -21789.3 -233721)
(4441.63 -97.6087 29895.9 70359.9 -18129.7 -186298)
(-768.506 -144.722 35792 42521.8 -11287.8 -108808)
(-4529.15 -104.595 24649.2 18703.8 -4875.97 -43121.9)
(-5367.75 -25.3069 5523.21 8894.78 -1721.01 -16770.7)
(-3607.67 40.2016 -11087.3 14071.7 -2615.44 -31992.9)
(-533.819 73.2905 -18421 28381.4 -6219.96 -72285.2)
(2408.12 72.5792 -14609.4 43321.2 -9980.64 -114074)
(3707.42 36.1483 -2351.94 50775.1 -11497 -134707)
(2078.16 -18.963 10326.2 46025.4 -9958.98 -120602)
(-2062.93 -43.5619 11912.1 32531.9 -6863.84 -81186.3)
(-5658.18 -4.37994 -3241.03 23353.7 -5219.26 -53486.7)
(-5044.86 70.3591 -26192 31336.2 -7544.69 -74636.1)
(237.185 125.916 -37641.5 56433.6 -13609.3 -145133)
(5764.85 140.228 -24906.5 82606.3 -19851.9 -218921)
(6795.86 66.982 1285.66 90539.6 -22055.9 -240561)
(3629.97 -68.7269 20881.9 80423.7 -20171.9 -211079)
(-232.666 -115.497 25531.4 63628.2 -16407.6 -163452)
(-1867.56 -52.6386 19008.2 51360.8 -13098.2 -129833)
(-119.109 48.3506 12428.3 48023.4 -11281.4 -122918)
(5381.47 104.299 16514 46787 -9686.84 -125524)
(25648.7 -503.63 19662.5 41085.1 -4732.22 -130658)
(80276.5 2818.84 -32210.3 91583.5 -40662.4 -368926)
(18842.2 -2744.31 9263.99 78479.1 -51907.1 -264072)
(3148.18 -3422.49 30969.6 56245.9 -39004.1 -175330)
(-4276.81 -2758.81 27127 31476.1 -19374.2 -88889.5)
(-7679.15 -959.4 4378.03 16821.8 -6796.91 -39521.4)
(-5732.27 1073.3 -21664.3 19307.5 -5711.41 -50520.9)
(319.774 1989.96 -32297.7 34937.5 -13164.6 -107861)
(5792.48 1241.68 -19418.3 50405.6 -22155.7 -163905)
(6761.7 -472.283 5196.79 53138.8 -25588 -173141)
(3661.41 -1937.37 23941.7 42762 -22015 -136496)
(-672.877 -2291.56 28408.1 26028.6 -14009 -78662.5)
(-3752.15 -1503.42 19496.2 11825.7 -5755.4 -30621.5)
(-4413.41 -224.861 4477.88 6006.43 -1089.85 -12003.7)
(-2967.38 827.159 -8491.54 9115.16 -1660.23 -23772.6)
(-470.747 1268.97 -14293.6 17653.5 -6020.74 -53575.7)
(1930.94 1022.15 -11529.2 26563.6 -10563.5 -84423.5)
(3023.57 210.96 -2138.99 31037.8 -11920.9 -99974.7)
(1706.76 -709.111 7772.27 28294.3 -9579.32 -89854.5)
(-1732.52 -944.006 9005.4 20396.8 -6159.44 -60426.2)
(-4743.01 -42.0921 -3162.19 15137 -4926.83 -39517.6)
(-4211.27 1430.2 -21600.4 20132.8 -8039.19 -55477.1)
(271.422 2241.77 -30643.7 35229.5 -14985.7 -108699)
(4939.57 1627.67 -19962.1 50732.5 -22104.5 -163871)
(5774.23 81.8023 1511.16 55347.9 -25089.7 -178814)
(3086.81 -1185.04 17444.1 49239.6 -23664 -155764)
(-149.011 -1370.41 21357.7 39329.6 -19626.3 -120410)
(-1521.55 -692.375 16364.1 32158.3 -15334.9 -96221.6)
(-58.5943 -21.1537 11235.6 30223 -11925.4 -92297.8)
(4786.27 31.4134 14605.5 29231.8 -8500.11 -95376.7)
(22457.6 -1155.61 17271.9 25964.2 1340.34 -104052)
(66827.9 3137.33 -29294 48632 -29204.3 -278748)
(15833.3 -3936.56 2901.35 40870.7 -46378.8 -192791)
(2657.06 -4709.24 20258.8 30139.8 -34935.2 -126840)
(-3282.79 -3767.77 17750.7 17794.3 -16103.3 -63987.6)
(-5958.66 -1239.79 910.174 10440.4 -3836.88 -28551)
(-4400.36 1641.19 -18543.5 11939.3 -1915.19 -37897.6)
(463.033 2902.79 -26114.3 20258.6 -7559.92 -81735.3)
(4819.57 1729.45 -15332.1 28259.9 -15206 -123899)
(5470.56 -799.175 4222.97 29281.4 -18988.4 -129455)
(2886.46 -2887.22 18626.5 23392.9 -17068 -100899)
(-573.885 -3335.92 21857.6 14369.8 -11028.8 -57421.1)
(-2975.25 -2153.82 14974.6 6838.24 -4096.17 -21863)
(-3467.28 -299.797 3595.56 3765.29 277.052 -8324.67)
(-2334.36 1205.95 -6197.97 5420.09 234.508 -17253.2)
(-401.266 1833.48 -10660.4 9949.61 -3212.06 -39424.3)
(1470.71 1483.9 -8759.89 14652.1 -6808.1 -62302.8)
(2348.92 325.063 -1842.08 16989 -7519.05 -73844)
(1328.79 -1005.74 5583.19 15580.1 -5255.21 -66344.1)
(-1413.04 -1345.51 6422.21 11607.4 -2679.8 -44510.3)
(-3833.43 -15.0035 -3110.43 9163.72 -2101.1 -29198.7)
(-3377.18 2146.04 -17503.8 12160.9 -4593.14 -41753.1)
(317.04 3304.5 -24375.8 20368.6 -9656.24 -82378.6)
(4125.58 2339.44 -15466.5 28493.3 -15010.3 -123912)
(4739.34 53.2534 1788.14 30631.8 -17812.8 -133840)
(2524.71 -1740.88 14332.7 27263.9 -17428 -115845)
(-56.3374 -1951.32 17580.2 22229.3 -14494.9 -89851.9)
(-1142 -945.739 14079.4 18704.8 -10725.7 -72515.5)
(32.8728 -6.79879 10415.3 17765.7 -7030.72 -69985.4)
(4016.68 7.31755 13333.2 16889.5 -3346.32 -72117.6)
(18588 -1563.22 14864.1 14809.5 7397.69 -79312.8)
(52584.2 3235.48 -25795.3 22409.8 -18429.2 -202688)
(12677.5 -4182.06 -2905.21 20034.3 -37887 -137679)
(2199.28 -4952.16 10621.5 15892.7 -28067.4 -90090.9)
(-2331.25 -3966.3 9345.98 10175.6 -11363.3 -44830.3)
(-4321.87 -1244.15 -2183.02 6642.07 -383.164 -19610.1)
(-3131.26 1896.83 -15654.9 7422.54 2030.91 -27250.9)
(589.11 3236.3 -20457.4 11552.5 -1695.1 -60262.5)
(3869.27 1832.42 -11635.5 15392 -7652.15 -91590)
(4213.35 -1037.47 3236.23 15457.8 -11631.5 -94409.9)
(2135.8 -3325.35 13606.8 12179.2 -11365.7 -72504.5)
(-466.192 -3756.15 15717.8 7589.22 -7450.95 -40549.5)
(-2208.25 -2395.47 10761.4 3833.49 -2178.32 -14807.2)
(-2543.44 -322.385 2777.52 2263.84 1544.99 -5093.72)
(-1718.71 1344.81 -4077.48 3046.81 1891.41 -11618.8)
(-328.807 2035.81 -7295.84 5282.66 -538.651 -27695.4)
(1031.64 1653.29 -6161.46 7561.32 -3099.2 -44201.1)
(1694.25 381.588 -1500.4 8597.19 -3311.68 -52394.1)
(955.029 -1081.61 3609.45 7878.06 -1328.31 -46841.4)
(-1102.14 -1437.91 4061.97 6188.95 518.258 -31170.3)
(-2937.17 75.9378 -3001.26 5451.07 800.375 -20540.5)
(-2555.07 2503.76 -13597.5 7347.56 -765.648 -30450.2)
(360.309 3762.17 -18443.2 11604.5 -3801.05 -60950.2)
(3319.34 2591.42 -11200.1 15505.1 -7351.28 -91571)
(3711.44 -10.7112 2081.64 16149.9 -10016.4 -97479.9)
(1968.15 -1959.66 11405.2 14369.7 -10534.8 -83677.1)
(47.0725 -2126.19 14029.1 12189.5 -8540.89 -65280.1)
(-748.702 -983.181 11984.1 10816.3 -5313.14 -53406.4)
(124.925 13.0715 9754.16 10425 -1702.35 -51658.8)
(3136.45 -91.8189 12216.7 9548.96 1616.86 -52463.9)
(14157.3 -1806.87 12324.5 7588.52 11544.1 -56565.6)
(38759 3246.35 -22033.3 5767.06 -14650.2 -137826)
(9590.13 -3683.12 -7844.01 7917.89 -33030.3 -93014.9)
(1755.71 -4466.64 2126.41 7717.52 -23393.2 -60509.2)
(-1459.45 -3623.37 1903.29 5631.73 -7884.51 -29012)
(-2813.76 -1082.59 -4912.88 4141.08 2263.5 -11703.8)
(-1960.84 1901.86 -13026.6 4416.62 4860.74 -17778.5)
(691.211 3137.13 -15358.3 6077.96 2139.36 -41912)
(2965.45 1659.03 -8359.59 7525.33 -2932.24 -64485.4)
(3031.19 -1197.06 2233.42 7069.46 -7282.24 -65301.6)
(1439.03 -3372.39 8948.68 5366.97 -8080.42 -49016.6)
(-353.169 -3709.54 10072.1 3403.09 -5331.66 -26540.8)
(-1479.99 -2336.82 6896.63 1863.62 -966.03 -8779.45)
(-1674.49 -310.413 2010.74 1171.65 2344.76 -2133.79)
(-1141.31 1303.37 -2171.91 1441.64 2846.31 -6669.23)
(-257.517 1967.24 -4254.34 2329.53 946.437 -17770.7)
(626.974 1599.35 -3795.15 3168.77 -1107.55 -29068.1)
(1085.8 385.986 -1154.14 3403.17 -1179.4 -34486.8)
(607.385 -997.847 1875.54 3050.07 597.403 -30466.2)
(-804.331 -1298.95 2000.08 2688.85 2260.86 -19791.5)
(-2086.56 212.188 -2787 2950.26 2738.62 -12941.1)
(-1779.71 2584.61 -9912.22 4181.41 1934.19 -20598.8)
(390.641 3758.89 -12932.3 6090.87 74.0288 -42714.3)
(2543.62 2496.61 -7262.57 7508.8 -2600.34 -64393.7)
(2734.09 -100.745 2351.21 7256.13 -5508.45 -67135.2)
(1447.34 -1925.33 8730.37 6397.18 -6558.22 -56829.1)
(155.963 -1995.13 10800 5887.06 -4825.74 -44587.7)
(-370.197 -855.823 10108.2 5823.04 -1610.9 -37116.9)
(191.589 38.9315 9182.54 5812.42 1981.13 -35896.4)
(2210.18 -240.744 11085 4998.06 4793.2 -35459.5)
(9699.67 -1918.72 9720.76 2919.93 13322.2 -36387)
(26288.1 3244.1 -18215.1 -4672.55 -17219.7 -84117.3)
(6726.3 -2662 -11665.8 892.49 -31824.6 -56834.2)
(1316.1 -3513.88 -5024.53 3001.55 -21074.2 -36407.7)
(-704.059 -2941 -4434.23 2836.27 -5825.62 -15683.8)
(-1484.52 -825.219 -7235.24 2398.65 3980.1 -4552.92)
(-928.308 1728.2 -10739.1 2348.48 6541.25 -9313)
(766.214 2740.95 -10952.8 2597.31 4033.09 -26287.6)
(2140.47 1303.47 -5598.68 2703.4 -885.975 -41855.4)
(1970.06 -1292.32 1231.95 2020.13 -5734.09 -41341.3)
(825.214 -3144.69 4791.08 1267.39 -7071.99 -29776.5)
(-240.369 -3340.25 5093.59 812.396 -4651.89 -14976.1)
(-821.504 -2070.2 3490.4 539.774 -498.136 -3621.37)
(-895.056 -271.579 1306.81 364.286 2671.66 554.366)
(-624.334 1141.08 -546.932 362.248 3167.42 -2404.08)
(-191.481 1713.74 -1635.87 490.744 1374.78 -9526.08)
(271.111 1390.58 -1750.92 505.402 -636.189 -16656.2)
(550.814 350.198 -836.393 271.976 -846.834 -19864.4)
(307.3 -811.865 432.368 103.444 811.286 -17054.1)
(-526.716 -1011.2 324.146 451.558 2704.63 -10286.2)
(-1317.75 367.721 -2447.33 1225.29 3698.69 -6307.77)
(-1087.95 2463.56 -6549.91 2028.34 3440.92 -11992.1)
(400.952 3430.7 -8018.15 2563.5 1992.33 -27233.1)
(1827.46 2162.16 -3802.74 2564.1 -602.223 -41690.7)
(1852.23 -209.277 2561.64 1834.2 -4036.67 -42100.7)
(990.287 -1722.17 6401.74 1487.06 -5337.99 -34671)
(265.068 -1655.24 8023.64 1879.85 -3356.87 -27249.4)
(-31.4738 -606.516 8524.16 2573.17 298.128 -23184.2)
(216.132 86.8036 8689.9 2863.2 4038.26 -22327.5)
(1289.42 -392.75 9901.09 2208.71 6395.32 -20911.3)
(5548.13 -1928.84 7152.09 60.0042 13338.9 -19218.4)
(15704.9 3255.47 -14481.4 -10646.8 -23862 -41714.9)
(4178.48 -1349.72 -14279.9 -2888.34 -32841.2 -28097.7)
(877.522 -2327.48 -10737.3 407.474 -20210 -16887.3)
(-86.6942 -2091.58 -9589.89 1128.05 -4746.43 -4443.01)
(-366.97 -524.033 -9124.87 1172.31 4960.17 1904.02)
(-59.9817 1452.55 -8840.85 945.02 7360.5 -1838.4)
(813.079 2179.21 -7325.81 466.048 4619.64 -13207.6)
(1418.22 854.255 -3408.99 -105.512 -563.111 -23313)
(1061.99 -1338.82 248.044 -808.96 -5914.31 -22074.2)
(313.69 -2756 1223.09 -1013.07 -7461.92 -14415.3)
(-132.009 -2787.5 892.093 -691.866 -4903.12 -5656.96)
(-254.018 -1683.69 615.974 -318.863 -569.467 704.731)
(-228.879 -212.124 679.752 -210.023 2631.02 2933.81)
(-183.369 916.184 761.821 -320.206 3054.93 1166.22)
(-133.993 1359.15 499.881 -560.605 1143.91 -2883.85)
(-26.6544 1094.76 -83.771 -960.131 -1080.31 -6800.85)
(107.179 287.902 -569.317 -1430.09 -1579.93 -8333.31)
(68.4615 -578.377 -696.078 -1524.86 1.50424 -6460.6)
(-275.087 -655.068 -925.38 -881.576 2308.51 -2601.89)
(-656.057 517.903 -1984.78 69.0138 3936.06 -648.55)
(-504.933 2215.03 -3586.35 588.631 4062.17 -4597.08)
(387.632 2909.83 -3819.95 377.845 2568.92 -14325.6)
(1192.38 1691.88 -918.206 -349.246 -397.948 -23108.5)
(1096.92 -327.376 2687.51 -1250.62 -4460.96 -21969.1)
(616.276 -1430.1 4470.58 -1338.89 -5866.9 -16872.4)
(372.157 -1201.05 5781.66 -554.104 -3406.96 -13058.7)
(252.754 -279.649 7287.67 506.559 929.363 -11454.1)
(191.981 170.197 8291.39 1034.21 4977.63 -10805.3)
(409.358 -507.793 8688.25 620.421 7021.04 -8709.29)
(1875.72 -1862.09 4703.1 -1469.55 12375.8 -5175.11)
(7229.17 3269.08 -10945 -13256.9 -32450.7 -10280.9)
(1990.65 44.7143 -15744.2 -4520.71 -34840.6 -5896.63)
(443.361 -1091.83 -15047.6 -862.459 -20041.1 -1235.44)
(388.147 -1205.51 -13580.5 119.44 -4248.47 4998.46)
(528.331 -214.471 -10584.1 329.36 5419.39 7677.94)
(634.348 1140.42 -7335.67 43.3518 7613.48 4659.54)
(832.162 1559.91 -4487.13 -720.672 4469.22 -2460.15)
(809.763 383.737 -1793.62 -1547.95 -1136.69 -8442.05)
(320.459 -1349.09 -706.621 -2137.46 -6901.54 -6978.66)
(-88.1861 -2299.8 -1733.28 -2052.57 -8484.99 -2504.64)
(-30.2354 -2166.25 -2507.09 -1433.37 -5619.29 1636.22)
(213.733 -1250.62 -1706.72 -823.433 -968.32 4238.34)
(314.215 -137.976 140.514 -584.968 2341.62 4978.63)
(174.662 676.592 1755.12 -696.94 2697.63 4067.36)
(-87.3099 973.196 2145.43 -1048.21 604.69 2294.61)
(-263.608 768.639 1194.47 -1588.49 -1917.48 750.293)
(-238.929 211.15 -364.64 -2139.14 -2754.9 419.122)
(-104.596 -341.615 -1519.11 -2229.49 -1249.01 1585.19)
(-52.6822 -295.591 -1759.44 -1558.95 1480.56 3394.35)
(-112.37 643.858 -1419.67 -648.716 3711.89 4050.07)
(-41.091 1901.44 -1054.7 -317.801 4111.45 1623.05)
(350.237 2305.86 -378.863 -864.682 2368.79 -3791.79)
(649.068 1172.29 1358.87 -1871.3 -1146.45 -8254.4)
(482.005 -444.956 2715.18 -2735.72 -5797.66 -6235.11)
(334.184 -1112.4 2940.32 -2715.71 -7252.68 -3013.18)
(477.937 -711.608 4094.4 -1866.3 -4293.44 -1770.02)
(478.649 83.5501 6424.4 -711.003 784.111 -1782.97)
(121.511 295.505 8013.97 -9.12505 5265.74 -1178.18)
(-407.872 -557.694 7501.42 -136.221 7182.86 1332.07)
(-1252.12 -1734.56 2440.34 -2044.91 11075.1 5916.18)
(863.398 3252.73 -7707.98 -13335.5 -41306.2 11041)
(175.461 1351.91 -16222.2 -4739.12 -36982.4 10674.9)
(22.4281 64.1176 -18084.7 -1335.7 -20102.2 11178.4)
(729.519 -368.36 -16492.3 -447.658 -4067.62 12884.3)
(1209.36 82.5225 -11635.6 -224.33 5537.73 12777.1)
(1158.86 839.475 -6191.99 -479.797 7540.49 10223.4)
(824.917 960.169 -2386.46 -1256.09 3994.95 6216.75)
(314.971 -56.4904 -712.566 -2081.97 -2031.6 3233.15)
(-257.057 -1331.95 -1623.46 -2486.45 -8071.93 4546.86)
(-383.408 -1842.52 -4108.14 -2276.68 -9619.14 6458.41)
(64.438 -1559.05 -5145.91 -1654.09 -6467.03 7170.33)
(583.617 -824.52 -3501.18 -1062.42 -1525.67 7043.67)
(736.408 -54.6149 -304.092 -794.392 1909.54 6684.22)
(450.453 456.117 2461.68 -845.902 2243.15 6358.98)
(-52.6928 606.202 3334.67 -1147.89 8.44786 6201.83)
(-442.691 453.377 2106.13 -1657.11 -2785.31 6325.77)
(-491.284 129.001 -226.09 -2191.16 -3945.55 6800.01)
(-214.944 -132.194 -2071.37 -2318.48 -2540.35 7448.62)
(139.645 22.5394 -2226.95 -1778.29 516.4 7904.24)
(314.751 733.751 -783.837 -1033.04 3237.49 7841.85)
(305.779 1568.58 1046.91 -826.984 3837.3 6739.61)
(291.013 1698.62 2327.6 -1450.93 1804.75 4618.1)
(198.878 666.766 3050.15 -2457.54 -2256.85 3332.58)
(6.60421 -552.536 2642.49 -3161.24 -7372.44 5708.78)
(143.531 -811.99 1779.04 -3116.7 -8871.04 7433.5)
(584.797 -244.649 2932.33 -2393.07 -5514.44 6944.19)
(650.996 448.953 5931.8 -1319.64 243.437 6014.82)
(14.0514 461.853 7887.78 -506.122 5243.29 6738.06)
(-1148.06 -526.544 6411.91 -338.986 7238.71 9465.57)
(-3836.41 -1554.82 418.285 -1992.36 9883.65 14419.3)
(-3536.49 3171.84 -4861.58 -11577.1 -49170 23508.8)
(-1273.05 2448.85 -15933.8 -4069.25 -38743.7 22502.2)
(-372.64 1061.15 -20028 -1371.59 -20153.2 20897.7)
(954.987 372.492 -18450.4 -754.912 -4049.32 19419.7)
(1696.33 356.915 -12314.2 -568.545 5453.54 17217.8)
(1527.37 579.512 -5356.97 -731.109 7322.49 14920.3)
(793.714 427.88 -935.598 -1366.85 3472.08 13107.5)
(-74.0432 -434.635 -97.8649 -2049.03 -2883.88 12205.3)
(-684.286 -1293.29 -2495.17 -2246.1 -9050.39 13119.7)
(-582.307 -1424.74 -5963.37 -2009.53 -10550.5 12996.6)
(152.399 -1016.9 -7108.52 -1544.92 -7233.51 11233.1)
(864.703 -439.426 -4819.37 -1113.61 -2119.03 9204.06)
(1048.26 33.1248 -651.373 -875.502 1420.47 8065.12)
(650.197 274.747 2926.91 -837.067 1796.61 8121.19)
(-30.5577 289.233 4127.43 -1002.68 -483.964 9054.37)
(-570.731 174.672 2695.07 -1385.12 -3461.97 10283.2)
(-660.49 47.4547 -152.21 -1849.28 -4896.44 11249.3)
(-270.76 32.3316 -2402.26 -2034.64 -3631.06 11528.6)
(302.78 274.015 -2398.43 -1701.55 -391.449 11162.1)
(635.259 782.233 -114.532 -1177.53 2669.13 10810.7)
(546.727 1246.32 2743.69 -1053.17 3421.26 10849.8)
(214.259 1139.55 4364.39 -1601.87 1154.78 11178.4)
(-163.269 216.014 4213.87 -2449.22 -3349.41 12138.4)
(-340.548 -642.691 2476.98 -2935.88 -8771.85 14499.8)
(36.7403 -553.263 934.58 -2908.52 -10332.2 15037)
(695.491 163.511 2233.02 -2402.12 -6736.09 13458.7)
(780.072 791.196 5785.44 -1508.62 -424.879 12155.1)
(-116.333 662.409 7939.87 -640.3 5140.6 13142.4)
(-1800.57 -410.348 5496.63 -208.461 7411.39 15970.4)
(-5914.28 -1327.58 -1315.14 -1599.7 9062.77 20792.1)
(-6212.13 3001.83 -2476.01 -8588.7 -55157.4 28655.2)
(-2372.68 3258.58 -15113 -2898.41 -39831.4 30421.4)
(-727.582 1859.42 -21072.7 -1210.26 -20101.5 28369.4)
(1086.04 997.687 -19595.4 -930.475 -4116.58 24768.7)
(2015.84 605.712 -12660.3 -775.265 5264.18 21022.5)
(1759.14 375.359 -4769.05 -806.453 7084.06 18830.5)
(741.712 -12.7894 -28.3597 -1230.87 3066.58 18489.6)
(-369.44 -735.056 132.577 -1705.33 -3489.02 18942.8)
(-981.236 -1236.6 -3314.27 -1704.52 -9645.35 19316.7)
(-699.443 -1065.89 -7374.52 -1493.31 -11120.8 17601.9)
(234.243 -564.535 -8498.81 -1254.67 -7801.07 14104.2)
(1069.86 -113.037 -5727.9 -1044.94 -2668.17 10810.7)
(1265.01 121.12 -902.394 -866.873 936.968 9148.95)
(783.358 140.928 3202.76 -732.175 1424.74 9441.32)
(-20.6512 37.1321 4595.39 -726.875 -784.46 11066.3)
(-656.615 -54.7031 3015.43 -941.499 -3834.45 12968.6)
(-760.828 -29.9386 -138.682 -1313.31 -5481.96 14189.4)
(-282.9 145.099 -2566.6 -1562.99 -4400.32 14209.5)
(438.611 449.091 -2352.18 -1458.06 -1133.63 13403.3)
(863.801 788.95 550.448 -1165.06 2112.01 13055.2)
(697.889 951.321 4073.58 -1093.61 2985.79 14061.2)
(125.63 656.465 5819.31 -1489.77 590.537 16160)
(-446.048 -158.416 4928.49 -2103.42 -4204.55 18631.3)
(-576.686 -710.512 2233.35 -2364.22 -9776.53 20742.9)
(1.68029 -345.941 347.444 -2370.29 -11425.7 20349.2)
(812.09 494.925 1917.28 -2105.25 -7760.04 18153.3)
(878.608 1093.45 5946 -1429.88 -1046.47 16862.8)
(-253.07 885.892 8190.02 -554.662 5101.69 18228.7)
(-2355.37 -216.487 4829.86 78.8854 7815.33 21115.9)
(-7536.37 -1056.99 -2715.32 -1114.87 8708.56 25503.4)
(-7465.36 2732.78 -590.768 -4910.99 -58723.7 28167.1)
(-3150 3745.42 -13976.2 -1514.49 -40118.9 35199.6)
(-1028.79 2447.66 -21405.5 -1004.33 -19943.1 33944.5)
(1144.6 1505.82 -20066.4 -1062.05 -4245.24 29052.6)
(2196.32 829.612 -12716.3 -908.935 5027.84 24213.4)
(1875.61 230.725 -4367.29 -791.046 6897.66 22033.3)
(672.723 -354.912 444.417 -986.88 2858.78 22612.1)
(-584.823 -953.718 64.3988 -1240.25 -3760.64 23860.9)
(-1170.17 -1163.36 -4071.95 -1067.5 -9794.84 23639.6)
(-751.018 -769.679 -8417.17 -901.691 -11282.4 20704.5)
(310.244 -207.177 -9423.08 -894.877 -8123.36 16034.6)
(1212.93 149.265 -6297.28 -913.131 -3128.81 11952.9)
(1403.5 205.883 -1061.48 -805.406 498.45 9969.61)
(860.794 54.4705 3340.07 -583.699 1161.26 10403.3)
(-22.1853 -147.425 4811.26 -408.711 -860.867 12431.1)
(-709.743 -231.499 3122.97 -451.33 -3869.56 14690.1)
(-807.675 -101.224 -179.848 -727.92 -5669.41 15993.7)
(-262.993 207.039 -2617.74 -1037.5 -4813.64 15831.6)
(549.377 548.956 -2164.34 -1146.51 -1664.19 14842.6)
(1016.62 756.721 1175.86 -1065.85 1626.91 14674.2)
(777.38 690.19 5078.82 -1029.04 2603.48 16478.1)
(31.5005 259.237 6787.4 -1247.17 201.533 19809.8)
(-659.403 -449.488 5279.63 -1610.63 -4721.56 23232.1)
(-721.321 -753.248 1931.1 -1665.64 -10305.4 24972)
(23.9488 -189.278 -39.8057 -1706.04 -12071.8 23864.7)
(935.301 745.62 1901.88 -1664 -8491.78 21381.4)
(959.271 1345.93 6365.41 -1203.3 -1521.66 20353.3)
(-379.105 1117.75 8648.22 -359.907 5204.17 22171.7)
(-2801.48 37.2596 4476.86 384.287 8479.69 25134.1)
(-8749.55 -749.002 -3739.64 -741.032 8776.17 28964.6)
(-7626.65 2368.34 789.498 -1023.49 -59638.3 23768.2)
(-3638.59 3907.61 -12704 -129.837 -39602 37520.1)
(-1265.16 2833.48 -21191.6 -842.833 -19722.4 37886.7)
(1150.79 1905.18 -19991.5 -1206.08 -4445 32350.2)
(2265.11 1030.47 -12524.1 -1024.87 4767.27 26803.3)
(1898.14 141.808 -4097.29 -758.115 6789.33 24594)
(591.111 -602.822 585.028 -740.854 2862.59 25680.3)
(-733.199 -1093.85 -220.108 -789.71 -3698.03 27303.5)
(-1272.7 -1073.02 -4756.9 -475.57 -9524.71 26498.3)
(-753.017 -529.1 -9157.8 -352.675 -11061.8 22657)
(379.983 63.2491 -9978.32 -544.743 -8204.56 17235.4)
(1306.74 350.522 -6594.44 -762.947 -3485.47 12710.5)
(1479.93 284.393 -1135.75 -723.762 123.142 10561)
(893.38 9.31775 3383.37 -434.342 1012.72 11080.1)
(-33.9101 -269.986 4841.42 -113.57 -722.304 13310.1)
(-738.861 -358.66 3069.65 -2.68854 -3589.78 15703.4)
(-815.687 -165.208 -269.432 -191.989 -5488.79 16971)
(-222.186 224.2 -2602.99 -549.498 -4894.72 16676.5)
(637.121 581.494 -1902.98 -838.045 -1982.92 15661.9)
(1109.33 689.827 1730.35 -936.098 1238.27 15756.4)
(803.05 462.162 5799.66 -923.742 2306.39 18191.1)
(-61.512 -55.0519 7359.69 -973.282 15.1729 22336.3)
(-812.792 -660.148 5350.69 -1107.87 -4885.87 26296)
(-793.518 -769.488 1592.83 -991.362 -10371.8 27630.7)
(88.6047 -75.6438 -276.424 -1057.19 -12280.1 26000.1)
(1064.02 921.1 2108.31 -1195.31 -8912.16 23451)
(1032.78 1543.8 6991.24 -920.208 -1808.51 22820.3)
(-478.613 1340.87 9312.92 -140.413 5474.97 25118.1)
(-3126.26 324.141 4488.63 602.634 9367.96 28201.8)
(-9583.71 -412.448 -4347.66 -630.893 9107.86 31473.2)
(-7027 1922.04 1691.95 2660.36 -57953.5 17106.4)
(-3877.04 3769.16 -11434.1 1103.79 -38363 37971.2)
(-1429.11 3035.56 -20569.1 -769.634 -19503.5 40382.6)
(1121.75 2207.75 -19484.3 -1394.7 -4744.9 34698.9)
(2246.83 1209.54 -12123.7 -1167.39 4475.24 28787)
(1846.74 100.213 -3914.38 -767.327 6745.56 26552.5)
(501.741 -767.262 483.447 -570.651 3041.66 27844.8)
(-825.668 -1162.42 -645.63 -446.524 -3360.23 29532.8)
(-1307.95 -963.108 -5354.08 -18.7887 -8917.11 28205.4)
(-720.047 -330.361 -9648.13 79.2039 -10532.1 23730.5)
(442.124 262.944 -10245.1 -256.54 -8082.39 17872.6)
(1361.73 498.937 -6678.02 -627.203 -3744.34 13149.3)
(1508.38 353.854 -1134.7 -648.627 -188.596 10952)
(891.117 -4.2241 3367.79 -317.087 964.254 11527.9)
(-54.1154 -341.026 4741.64 112.441 -407.129 13827.3)
(-751.273 -442.557 2900.53 346.12 -3054.34 16205.8)
(-797.662 -220.774 -400.6 231.823 -5009.48 17360.4)
(-170.47 205.648 -2561.11 -156.331 -4703.43 16963.1)
(703.243 557.987 -1625.35 -580.149 -2120.43 16004.3)
(1155.47 592.664 2186.48 -817.503 942.746 16372.6)
(791.037 261.251 6269.82 -826.03 2095.27 19269.3)
(-146.801 -297.763 7615.71 -739.15 13.4773 23901.2)
(-913.968 -799.447 5217.07 -688.996 -4742.96 28101)
(-810.086 -758.266 1243.38 -439.478 -10050.2 29065.2)
(181.292 6.81249 -399.925 -514.93 -12118.2 27086)
(1195.03 1032.47 2467.84 -778.073 -9053.15 24615.4)
(1106.6 1684.92 7768.99 -647.004 -1907.75 24428.5)
(-538.355 1535.88 10169.5 41.032 5902.68 27181.9)
(-3315.38 610.369 4897.43 659.697 10395.3 30426.9)
(-10042.2 -59.0821 -4502.35 -881.104 9465.83 33169.2)
(-5973.13 1413.23 2166.7 5804.42 -53964.4 9648.54)
(-3906.33 3371.98 -10263.9 2085.29 -36542.7 37036.1)
(-1516.95 3077.73 -19650.8 -797.316 -19351.4 41552.8)
(1071.38 2425.11 -18643.2 -1640.97 -5182.17 36095.8)
(2162.76 1366.43 -11554.2 -1368.12 4121.18 30131.8)
(1739.41 95.0757 -3784.84 -863.156 6721.26 27912.1)
(409.985 -861.826 215.124 -528.973 3323.45 29193.7)
(-870.664 -1167.51 -1145 -267.929 -2845.19 30723.9)
(-1291.57 -829.334 -5843.46 251.651 -8087.2 28976)
(-664.749 -155.825 -9922.1 352.625 -9792.71 24116.3)
(494.258 412.434 -10284.1 -60.686 -7814.59 18066.7)
(1385.21 605.379 -6595.95 -527.434 -3926.48 13318.4)
(1499.94 411.439 -1070.11 -599.671 -450.285 11162.1)
(862.652 2.13365 3317.52 -255.498 984.998 11782.4)
(-80.5703 -373.489 4555.11 239.244 26.6493 14065.7)
(-752.348 -490.932 2652.76 560.161 -2344.79 16334.8)
(-763.973 -266.375 -565.555 508.557 -4322.94 17331.6)
(-116.447 162.009 -2521 110.859 -4319.55 16848.3)
(748.15 490.878 -1377.11 -400.548 -2125.99 15972.7)
(1165.69 468.884 2519.78 -737.594 717.643 16570.8)
(754.971 77.9046 6513.32 -768.901 1948.19 19755.4)
(-217.826 -485.333 7618.91 -591.612 147.119 24613.5)
(-968.136 -879.565 4943.04 -412.781 -4377.4 28843.8)
(-784.496 -718.296 909.701 -67.217 -9451.52 29523.8)
(288.824 72.3725 -434.168 -131.317 -11686.8 27367.2)
(1322.75 1093.53 2923.81 -459.808 -8978.19 25070.8)
(1184.03 1767.99 8642.69 -428.493 -1849.89 25309.5)
(-548.691 1681.3 11188.2 139.863 6447.11 28441.1)
(-3353.02 857.456 5712.26 510.434 11444.1 31840.3)
(-10095.9 297.117 -4172.19 -1528.01 9569.41 34006.5)
(-4726.76 863.747 2275.1 8162.47 -48156.9 2591.94)
(-3766.99 2768.88 -9259.05 2757.53 -34315.8 35085.5)
(-1528.49 2984.76 -18529.1 -917.004 -19321 41460.4)
(1010.55 2566.2 -17554.2 -1942.26 -5793.73 36498)
(2030.89 1498.59 -10853.4 -1644.16 3658.69 30770.6)
(1592.14 114.499 -3685.99 -1072.91 6648.42 28630.4)
(321.782 -900.549 -159.029 -644.681 3611.96 29745.9)
(-873.633 -1116.84 -1658.74 -280.574 -2272.47 30962.2)
(-1235.37 -666.003 -6198.76 315.22 -7165.67 28931.6)
(-597.592 13.9003 -9994.47 451.839 -8954.35 23929.7)
(532.81 533.914 -10134.2 30.1226 -7468.52 17893.9)
(1381 681.592 -6384.6 -474.682 -4061.71 13249)
(1462.32 454.047 -956.061 -588.92 -685.014 11198.5)
(815.097 15.7472 3245.06 -263.902 1033.16 11855.5)
(-110.413 -381.106 4311.82 250.445 509.005 14065.9)
(-745.243 -511.509 2355.68 623.025 -1554.42 16168.9)
(-722.362 -299.731 -754.821 624.415 -3530.38 16988.6)
(-67.3769 104.555 -2501.37 241.029 -3830.8 16430.8)
(770.965 392.464 -1192.85 -310.53 -2057.76 15630.4)
(1147.29 321.005 2707.4 -710.292 528.839 16373.6)
(705.643 -99.6708 6542.3 -770.489 1828.86 19661.4)
(-268.019 -636.746 7414.45 -555.983 347.453 24526.1)
(-977.424 -913.687 4580.8 -308.555 -3895.98 28636.5)
(-726.346 -647.468 621.481 100.102 -8704.63 29160)
(399.373 136.643 -388.3 72.0039 -11101.5 27006.6)
(1438.93 1118.84 3432.31 -262.477 -8766.56 24958.6)
(1263.57 1791.13 9554.02 -290.705 -1684.41 25561.1)
(-504.306 1753.78 12321.3 127.955 7047.1 28935.1)
(-3222.39 1025 6914.37 138.416 12378.3 32390.4)
(-9680.8 641.149 -3333.79 -2545.67 9135.18 33740.6)
(-3489.4 295.618 2077.98 9588.03 -41145.3 -3200.27)
(-3496.37 2017.78 -8463.6 3102.77 -31871.3 32374.3)
(-1466.48 2779.85 -17283.7 -1104.55 -19449.9 40117.6)
(947.748 2636.35 -16294.5 -2281.82 -6609.57 35822.4)
(1866.35 1601.31 -10059.9 -1995.76 3033.85 30593.8)
(1419.05 146.516 -3605.6 -1403.95 6445.97 28611.1)
(243.715 -896.446 -591.379 -922.312 3800.13 29446.7)
(-836.985 -1016.93 -2133.79 -482.93 -1768.12 30242.8)
(-1147.26 -466.65 -6386.52 177.297 -6285.04 28103)
(-526.912 198.38 -9860.46 381.899 -8128.2 23214.8)
(552.957 649.398 -9813.17 18.071 -7112.81 17388.8)
(1349.29 738.944 -6068.98 -470.156 -4182.98 12953.7)
(1399.76 478.134 -809.335 -620.269 -920.952 11054)
(754.065 23.7683 3151.16 -347.139 1060.9 11733.1)
(-140.016 -377.291 4028.98 142.245 964.315 13825.2)
(-730.787 -511.163 2031.79 533.943 -780 15729)
(-677.979 -317.699 -956.368 582.51 -2733.54 16373.4)
(-29.3689 44.6546 -2510.65 239.083 -3324.01 15755.7)
(769.322 274.264 -1097.07 -307.352 -1974.77 15003.4)
(1104.12 150.452 2726.73 -736.377 338.221 15776.9)
(650.984 -284.347 6355.79 -834.056 1694.56 18966.4)
(-290.605 -771.611 7028.42 -637.271 537.329 23633.1)
(-940.58 -914.6 4170.8 -379.477 -3413.4 27506.6)
(-641.166 -542.664 412.164 63.4654 -7942.13 28036.1)
(502.416 215.832 -256.047 97.6865 -10479.7 26090.8)
(1532.35 1122.59 3961.91 -186.996 -8501.06 24368.5)
(1338.45 1751.14 10440.8 -242.746 -1470.29 25247.3)
(-404.696 1728.74 13500 -6.32647 7627.8 28662.2)
(-2906.25 1073.82 8452.55 -443.478 13058 31939.5)
(-8699.43 958.402 -1975.15 -3846.79 7917.61 31934.2)
(-2393.41 -270.545 1626.22 10038.9 -33604.5 -7234.5)
(-3126.55 1176.9 -7910.96 3139.58 -29392.9 29040.9)
(-1335.79 2483.42 -15988.3 -1323.21 -19755.4 37489.9)
(889.692 2637.51 -14936.8 -2627.96 -7646.38 33945.3)
(1681.97 1668.12 -9213.9 -2402.83 2194.9 29443.9)
(1232.83 179.74 -3540.99 -1839.71 6031.18 27696.2)
(183.064 -860.762 -1045.69 -1339.65 3782.94 28163.4)
(-760.279 -873.121 -2521.96 -845.177 -1450.21 28471)
(-1031.54 -224.997 -6365.62 -132.337 -5567.67 26434.3)
(-459.068 415.936 -9496.29 166.672 -7416.5 21948.4)
(548.598 779.31 -9318.3 -81.2346 -6810.36 16546.8)
(1286.68 787.56 -5663.68 -505.626 -4321.15 12427.4)
(1313.15 479.681 -649.888 -688.909 -1186.66 10705.3)
(683.833 13.727 3024.91 -499.648 1019.42 11372.7)
(-164.842 -374.407 3711.89 -76.1289 1317.47 13295.5)
(-707.465 -495.488 1697.94 307.055 -114.769 14979)
(-633.555 -316.365 -1154.7 400.958 -2027.35 15469.7)
(-7.62719 -6.6066 -2547.19 123.633 -2878.08 14819.3)
(739.256 146.823 -1105.29 -375.666 -1930.07 14082.7)
(1036.63 -42.0443 2554.3 -803.624 110.89 14749.7)
(596.234 -488.895 5939.25 -947.339 1504.28 17614.5)
(-278.421 -908.595 6468.27 -819.817 641.554 21868.5)
(-852.862 -893.811 3742.88 -603.325 -3039.22 25397.7)
(-530.463 -399.94 320.184 -152.16 -7288.51 26126.9)
(588.558 326.084 -15.1302 -30.7084 -9929.3 24636)
(1588.58 1117.96 4493.25 -216.323 -8257.84 23344.6)
(1396.23 1643.49 11235 -277.669 -1267.32 24399.6)
(-254.409 1581.66 14630.3 -256.225 8108.58 27576.8)
(-2387.58 969.461 10238.8 -1190.89 13354.1 30263.3)
(-7026.2 1236.15 -99.123 -5286.29 5747.74 27980)
(-1499.73 -816.468 954.422 9575.15 -26200.3 -9390.38)
(-2683.07 301.307 -7632.12 2921.02 -27042.8 25111.9)
(-1142.75 2113.09 -14717 -1522.81 -20231.1 33499.2)
(841.967 2569.3 -13552.4 -2931.03 -8900.37 30700.7)
(1488.92 1691.59 -8358.56 -2819.92 1104.11 27109.4)
(1045.07 203.871 -3498 -2334.03 5333.77 25660.4)
(147.791 -802.734 -1495.07 -1843.2 3472.5 25682.7)
(-640.57 -690.034 -2778.66 -1306.63 -1413.5 25464.8)
(-889.261 63.7484 -6087.49 -557.97 -5113.53 23786.4)
(-398.643 682.082 -8860.4 -150.565 -6903.5 20043.4)
(512.393 941.107 -8628.08 -238.96 -6611.59 15326.9)
(1186.46 835.647 -5174.28 -563.563 -4499.75 11648)
(1200.35 454.385 -501.462 -780.607 -1506.03 10112.3)
(607.582 -25.8053 2844.17 -703.751 864.779 10701.2)
(-179.355 -383.177 3355.09 -380.41 1500.69 12382.6)
(-671.522 -468.677 1366.81 -27.1907 358.952 13826.8)
(-589.654 -291.37 -1330.1 113.181 -1492.92 14205.5)