/*--------------------------------*- C++ -*----------------------------------*\
| =========                 |                                                 |
| \\      /  F ield         | OpenFOAM: The Open Source CFD Toolbox           |
|  \\    /   O peration     | Version:  2106                                  |
|   \\  /    A nd           | Website:  www.openfoam.com                      |
|    \\/     M anipulation  |                                                 |
\*---------------------------------------------------------------------------*/
FoamFile
{
    version     2.0;
    format      ascii;
    arch        "LSB;label=32;scalar=64";
    class       volSymmTensorField;
    location    "1350";
    object      sigma;
}
// * * * * * * * * * * * * * * * * * * * * * * * * * * * * * * * * * * * * * //

dimensions      [1 -1 -2 0 0 0 0];

internalField   nonuniform List<symmTensor> 
9000
(
(-7.93435e+13 1.36947e+12 -2.31964e+13 -4.16864e+13 -2.45847e+13 -4.74305e+14)
(-1.14282e+14 -1.60095e+11 1.09517e+13 -3.85047e+13 -2.5848e+13 -3.78758e+14)
(-8.817e+13 -1.3679e+11 2.96023e+13 -2.67117e+13 -1.90357e+13 -2.59197e+14)
(-5.20845e+13 -9.26601e+10 2.60283e+13 -1.37544e+13 -9.9554e+12 -1.34149e+14)
(-3.00621e+13 -6.07371e+10 5.79021e+12 -6.15644e+12 -4.30469e+12 -6.12142e+13)
(-3.21409e+13 -1.60433e+10 -1.71806e+13 -7.2052e+12 -4.35126e+12 -7.32755e+13)
(-5.27156e+13 1.5535e+10 -2.68671e+13 -1.48682e+13 -8.69865e+12 -1.50355e+14)
(-7.40169e+13 3.0632e+10 -1.64614e+13 -2.27171e+13 -1.34633e+13 -2.27654e+14)
(-7.81572e+13 1.76791e+09 4.24227e+12 -2.42873e+13 -1.48196e+13 -2.42612e+14)
(-6.43855e+13 -6.6387e+10 2.03333e+13 -1.95522e+13 -1.23307e+13 -1.94114e+14)
(-4.10611e+13 -9.84306e+10 2.43434e+13 -1.16178e+13 -7.67721e+12 -1.14542e+14)
(-2.05805e+13 -7.11388e+10 1.67647e+13 -4.779e+12 -3.31631e+12 -4.68288e+13)
(-1.16571e+13 -1.72121e+10 3.75652e+12 -1.95663e+12 -1.17052e+12 -1.94126e+13)
(-1.54689e+13 2.73425e+10 -7.54084e+12 -3.44459e+12 -1.77885e+12 -3.47747e+13)
(-2.72281e+13 4.98474e+10 -1.25288e+13 -7.56181e+12 -4.23041e+12 -7.60286e+13)
(-3.96807e+13 4.93636e+10 -9.93634e+12 -1.18543e+13 -6.78818e+12 -1.18904e+14)
(-4.59791e+13 2.45857e+10 -1.59963e+12 -1.39667e+13 -7.81952e+12 -1.4012e+14)
(-4.24159e+13 -1.28974e+10 7.02323e+12 -1.25258e+13 -6.77345e+12 -1.25855e+14)
(-3.20646e+13 -2.96279e+10 8.10185e+12 -8.5355e+12 -4.66833e+12 -8.58791e+13)
(-2.5486e+13 -2.97895e+09 -2.20433e+12 -5.75403e+12 -3.5498e+12 -5.80159e+13)
(-3.26583e+13 4.78537e+10 -1.78141e+13 -7.91425e+12 -5.13141e+12 -7.99897e+13)
(-5.33191e+13 8.56397e+10 -2.56013e+13 -1.5098e+13 -9.25613e+12 -1.5219e+14)
(-7.50043e+13 9.53737e+10 -1.69397e+13 -2.27417e+13 -1.35019e+13 -2.27821e+14)
(-8.19663e+13 4.55568e+10 8.74421e+11 -2.50093e+13 -1.5001e+13 -2.50202e+14)
(-7.43256e+13 -4.67435e+10 1.42025e+13 -2.20955e+13 -1.37196e+13 -2.20356e+14)
(-6.06483e+13 -7.85538e+10 1.73648e+13 -1.72143e+13 -1.11594e+13 -1.71659e+14)
(-4.98403e+13 -3.58013e+10 1.29281e+13 -1.36378e+13 -8.90857e+12 -1.36874e+14)
(-4.54313e+13 3.28849e+10 8.4529e+12 -1.26879e+13 -7.67287e+12 -1.28951e+14)
(-4.06877e+13 7.09372e+10 1.12318e+13 -1.25263e+13 -6.58835e+12 -1.29721e+14)
(-2.12013e+13 -3.42536e+11 1.33731e+13 -1.07025e+13 -3.21855e+12 -1.27511e+14)
(-6.45396e+13 1.91719e+12 -2.19073e+13 -5.68494e+13 -2.76559e+13 -3.70058e+14)
(-8.79959e+13 -1.8665e+12 6.30076e+12 -4.74348e+13 -3.53038e+13 -2.80416e+14)
(-6.7949e+13 -2.32775e+12 2.10635e+13 -3.18355e+13 -2.6528e+13 -1.89338e+14)
(-4.02042e+13 -1.87636e+12 1.845e+13 -1.58874e+13 -1.3177e+13 -9.77522e+13)
(-2.35884e+13 -6.52521e+11 2.97765e+12 -6.92452e+12 -4.62281e+12 -4.52455e+13)
(-2.62344e+13 7.29991e+11 -1.47346e+13 -9.20405e+12 -3.88453e+12 -5.66968e+13)
(-4.36758e+13 1.35344e+12 -2.19668e+13 -2.0131e+13 -8.9537e+12 -1.17253e+14)
(-6.11755e+13 8.44507e+11 -1.32071e+13 -3.08326e+13 -1.50689e+13 -1.76592e+14)
(-6.38619e+13 -3.21216e+11 3.53452e+12 -3.23192e+13 -1.74033e+13 -1.8622e+14)
(-5.1964e+13 -1.31767e+12 1.62836e+13 -2.53703e+13 -1.49732e+13 -1.4729e+14)
(-3.26847e+13 -1.55857e+12 1.93213e+13 -1.45241e+13 -9.52803e+12 -8.57281e+13)
(-1.61833e+13 -1.02253e+12 1.326e+13 -5.58829e+12 -3.91445e+12 -3.44581e+13)
(-9.29531e+12 -1.52936e+11 3.04556e+12 -2.20842e+12 -7.41243e+11 -1.44578e+13)
(-1.26732e+13 5.62579e+11 -5.77539e+12 -4.45546e+12 -1.12918e+12 -2.68236e+13)
(-2.23217e+13 8.6307e+11 -9.72157e+12 -9.99476e+12 -4.09491e+12 -5.84402e+13)
(-3.2499e+13 6.952e+11 -7.84142e+12 -1.57455e+13 -7.18458e+12 -9.12316e+13)
(-3.77921e+13 1.43481e+11 -1.4548e+12 -1.87386e+13 -8.10778e+12 -1.07845e+14)
(-3.50241e+13 -4.82291e+11 5.28619e+12 -1.6941e+13 -6.51522e+12 -9.72981e+13)
(-2.64257e+13 -6.42051e+11 6.12488e+12 -1.13748e+13 -4.18925e+12 -6.63453e+13)
(-2.08327e+13 -2.86283e+10 -2.15071e+12 -7.31162e+12 -3.35091e+12 -4.44841e+13)
(-2.67778e+13 9.72725e+11 -1.46912e+13 -1.02206e+13 -5.46773e+12 -6.16455e+13)
(-4.4068e+13 1.5247e+12 -2.08419e+13 -2.02918e+13 -1.01923e+13 -1.18183e+14)
(-6.20535e+13 1.10704e+12 -1.35769e+13 -3.09082e+13 -1.5034e+13 -1.76868e+14)
(-6.72245e+13 5.56366e+10 1.02779e+12 -3.35077e+13 -1.70644e+13 -1.92769e+14)
(-6.04346e+13 -8.05984e+11 1.18643e+13 -2.90445e+13 -1.60947e+13 -1.68474e+14)
(-4.92093e+13 -9.32067e+11 1.45261e+13 -2.23585e+13 -1.33485e+13 -1.31003e+14)
(-4.06847e+13 -4.70908e+11 1.11298e+13 -1.77779e+13 -1.04298e+13 -1.05094e+14)
(-3.76031e+13 -1.43874e+10 7.64171e+12 -1.70075e+13 -8.11091e+12 -1.00338e+14)
(-3.38395e+13 2.13653e+10 9.93373e+12 -1.72133e+13 -5.78122e+12 -1.01964e+14)
(-1.83576e+13 -7.85972e+11 1.17472e+13 -1.59726e+13 9.11612e+11 -1.04401e+14)
(-5.32659e+13 2.13381e+12 -1.99239e+13 -6.56416e+13 -1.98629e+13 -2.88304e+14)
(-7.1504e+13 -2.67739e+12 1.97331e+12 -5.44752e+13 -3.15438e+13 -2.13396e+14)
(-5.50473e+13 -3.20292e+12 1.37787e+13 -3.63553e+13 -2.37606e+13 -1.43122e+14)
(-3.21439e+13 -2.56259e+12 1.20729e+13 -1.78086e+13 -1.09524e+13 -7.34314e+13)
(-1.86037e+13 -8.43227e+11 6.19041e+11 -7.45018e+12 -2.6096e+12 -3.39696e+13)
(-2.13462e+13 1.11623e+12 -1.26121e+13 -1.0233e+13 -1.30259e+12 -4.41288e+13)
(-3.65714e+13 1.97429e+12 -1.77613e+13 -2.31077e+13 -5.14176e+12 -9.24773e+13)
(-5.16279e+13 1.17626e+12 -1.04279e+13 -3.56853e+13 -1.03421e+13 -1.39174e+14)
(-5.3533e+13 -5.43547e+11 2.87219e+12 -3.73384e+13 -1.29147e+13 -1.453e+14)
(-4.31489e+13 -1.9637e+12 1.26685e+13 -2.92017e+13 -1.16085e+13 -1.13737e+14)
(-2.67642e+13 -2.26887e+12 1.48661e+13 -1.66004e+13 -7.50105e+12 -6.54279e+13)
(-1.29054e+13 -1.46488e+12 1.01847e+13 -6.23089e+12 -2.78594e+12 -2.57516e+13)
(-7.2105e+12 -2.03902e+11 2.44547e+12 -2.29138e+12 1.88432e+11 -1.05142e+13)
(-1.01525e+13 8.20206e+11 -4.21545e+12 -4.87843e+12 1.59497e+11 -2.02993e+13)
(-1.83345e+13 1.24701e+12 -7.25049e+12 -1.12945e+13 -2.18463e+12 -4.48754e+13)
(-2.69181e+13 1.00925e+12 -5.9579e+12 -1.7953e+13 -4.63042e+12 -7.02927e+13)
(-3.13545e+13 2.21086e+11 -1.25286e+12 -2.13973e+13 -5.11397e+12 -8.31759e+13)
(-2.89827e+13 -6.84037e+11 3.79732e+12 -1.92899e+13 -3.57425e+12 -7.50093e+13)
(-2.17069e+13 -9.1513e+11 4.36796e+12 -1.28513e+13 -1.82262e+12 -5.10188e+13)
(-1.70369e+13 -1.02044e+10 -2.11551e+12 -8.1971e+12 -1.42903e+12 -3.42887e+13)
(-2.22287e+13 1.4596e+12 -1.19049e+13 -1.16607e+13 -3.12395e+12 -4.83295e+13)
(-3.70814e+13 2.2475e+12 -1.65788e+13 -2.34436e+13 -6.56755e+12 -9.33256e+13)
(-5.23864e+13 1.59114e+12 -1.05193e+13 -3.58131e+13 -1.02091e+13 -1.39469e+14)
(-5.63072e+13 3.62195e+10 1.21617e+12 -3.86968e+13 -1.21151e+13 -1.5056e+14)
(-5.03091e+13 -1.18403e+12 9.74816e+12 -3.34832e+13 -1.18534e+13 -1.30816e+14)
(-4.09542e+13 -1.32716e+12 1.19569e+13 -2.5797e+13 -9.85846e+12 -1.02027e+14)
(-3.39988e+13 -6.4323e+11 9.57587e+12 -2.05003e+13 -7.29494e+12 -8.25423e+13)
(-3.15276e+13 -4.62409e+09 7.08378e+12 -1.94669e+13 -4.78183e+12 -7.91495e+13)
(-2.82284e+13 4.97692e+09 9.06834e+12 -1.94731e+13 -2.27595e+12 -8.00099e+13)
(-1.51161e+13 -1.0632e+12 1.01096e+13 -1.7686e+13 5.03143e+12 -8.17018e+13)
(-4.14345e+13 2.20056e+12 -1.75443e+13 -6.19572e+13 -1.25343e+13 -2.15054e+14)
(-5.48366e+13 -2.84436e+12 -1.97593e+12 -4.98329e+13 -2.57682e+13 -1.57099e+14)
(-4.20318e+13 -3.36814e+12 7.22402e+12 -3.27185e+13 -1.90896e+13 -1.04802e+14)
(-2.39456e+13 -2.69762e+12 6.35652e+12 -1.54392e+13 -7.72857e+12 -5.28506e+13)
(-1.3392e+13 -8.46191e+11 -1.48475e+12 -5.935e+12 -2.60603e+11 -2.379e+13)
(-1.60099e+13 1.2901e+12 -1.06474e+13 -8.83191e+12 1.38129e+12 -3.24145e+13)
(-2.86912e+13 2.20112e+12 -1.39138e+13 -2.12346e+13 -1.1529e+12 -7.00785e+13)
(-4.10954e+13 1.24629e+12 -7.91367e+12 -3.32583e+13 -5.20449e+12 -1.0602e+14)
(-4.23184e+13 -7.05622e+11 2.20107e+12 -3.46706e+13 -7.91098e+12 -1.09395e+14)
(-3.37263e+13 -2.26169e+12 9.25448e+12 -2.68955e+13 -7.73019e+12 -8.44918e+13)
(-2.05252e+13 -2.55468e+12 1.06902e+13 -1.50464e+13 -5.06765e+12 -4.77873e+13)
(-9.47088e+12 -1.62924e+12 7.31917e+12 -5.36169e+12 -1.48155e+12 -1.80399e+13)
(-4.97804e+12 -2.19265e+11 1.88909e+12 -1.70845e+12 1.0508e+12 -6.71258e+12)
(-7.39e+12 9.14649e+11 -2.77324e+12 -4.1488e+12 1.28641e+12 -1.41234e+13)
(-1.3972e+13 1.38462e+12 -4.96215e+12 -1.01554e+13 -3.66355e+11 -3.2585e+13)
(-2.08254e+13 1.12446e+12 -4.19062e+12 -1.63843e+13 -2.10787e+12 -5.15898e+13)
(-2.43011e+13 2.59531e+11 -1.02047e+12 -1.96062e+13 -2.25239e+12 -6.10885e+13)
(-2.23285e+13 -7.35641e+11 2.45491e+12 -1.762e+13 -9.03432e+11 -5.48365e+13)
(-1.65184e+13 -9.77973e+11 2.76268e+12 -1.15595e+13 3.52485e+11 -3.69688e+13)
(-1.28956e+13 5.16479e+10 -2.04126e+12 -7.19042e+12 5.44362e+11 -2.48682e+13)
(-1.72492e+13 1.70289e+12 -9.24815e+12 -1.05141e+13 -5.20744e+11 -3.62217e+13)
(-2.93694e+13 2.55878e+12 -1.25439e+13 -2.17219e+13 -2.58523e+12 -7.10688e+13)
(-4.1722e+13 1.76251e+12 -7.61755e+12 -3.34341e+13 -4.99986e+12 -1.0626e+14)
(-4.44008e+13 -7.28505e+09 1.4158e+12 -3.5941e+13 -6.81253e+12 -1.13225e+14)
(-3.93719e+13 -1.33283e+12 7.75705e+12 -3.09371e+13 -7.16507e+12 -9.76221e+13)
(-3.20358e+13 -1.4461e+12 9.5417e+12 -2.37773e+13 -5.80895e+12 -7.64671e+13)
(-2.67099e+13 -6.68695e+11 8.15083e+12 -1.88442e+13 -3.61365e+12 -6.25243e+13)
(-2.47676e+13 8.8904e+09 6.63414e+12 -1.77622e+13 -1.15783e+12 -5.99875e+13)
(-2.19151e+13 -6.24492e+10 8.30898e+12 -1.75537e+13 1.09968e+12 -5.97308e+13)
(-1.14216e+13 -1.22892e+12 8.38232e+12 -1.58892e+13 7.85157e+12 -5.95227e+13)
(-3.00439e+13 2.20796e+12 -1.49856e+13 -5.24829e+13 -9.96411e+12 -1.50145e+14)
(-3.91258e+13 -2.50502e+12 -5.33498e+12 -4.02632e+13 -2.24651e+13 -1.08911e+14)
(-2.966e+13 -3.03792e+12 1.44625e+12 -2.56052e+13 -1.59106e+13 -7.20085e+13)
(-1.60095e+13 -2.46438e+12 1.29449e+12 -1.11865e+13 -5.36253e+12 -3.4749e+13)
(-8.18666e+12 -7.36306e+11 -3.34142e+12 -3.45643e+12 1.53948e+12 -1.42331e+13)
(-1.05968e+13 1.29352e+12 -8.85987e+12 -6.2593e+12 3.30596e+12 -2.1355e+13)
(-2.07756e+13 2.13367e+12 -1.04457e+13 -1.71119e+13 1.45505e+12 -4.97515e+13)
(-3.06259e+13 1.12837e+12 -5.68564e+12 -2.75246e+13 -1.99431e+12 -7.65016e+13)
(-3.13106e+13 -8.14162e+11 1.51902e+12 -2.8564e+13 -4.9529e+12 -7.77861e+13)
(-2.45399e+13 -2.29368e+12 6.0863e+12 -2.18684e+13 -5.49577e+12 -5.88566e+13)
(-1.44416e+13 -2.52299e+12 6.85042e+12 -1.18869e+13 -3.62625e+12 -3.22527e+13)
(-6.08206e+12 -1.58935e+12 4.69063e+12 -3.80795e+12 -6.5703e+11 -1.10467e+13)
(-2.73255e+12 -2.11123e+11 1.36757e+12 -7.96791e+11 1.59475e+12 -3.04493e+12)
(-4.62631e+12 8.86465e+11 -1.47719e+12 -2.86956e+12 1.93587e+12 -8.38604e+12)
(-9.66564e+12 1.33799e+12 -2.89352e+12 -7.9061e+12 6.43705e+11 -2.15769e+13)
(-1.4852e+13 1.08777e+12 -2.58122e+12 -1.31232e+13 -7.53284e+11 -3.50486e+13)
(-1.73968e+13 2.62523e+11 -7.84971e+11 -1.58207e+13 -8.0215e+11 -4.1591e+13)
(-1.57942e+13 -6.7867e+11 1.27562e+12 -1.41328e+13 4.06315e+11 -3.69284e+13)
(-1.13726e+13 -8.83459e+11 1.36032e+12 -8.99676e+12 1.53769e+12 -2.42864e+13)
(-8.72034e+12 1.44316e+11 -1.89554e+12 -5.29463e+12 1.86263e+12 -1.61029e+13)
(-1.22114e+13 1.75788e+12 -6.74164e+12 -8.15705e+12 1.31551e+12 -2.50109e+13)
(-2.1639e+13 2.55655e+12 -8.79571e+12 -1.77621e+13 5.03495e+10 -5.09561e+13)
(-3.11224e+13 1.69803e+12 -4.93952e+12 -2.77454e+13 -1.76858e+12 -7.66488e+13)
(-3.26879e+13 -6.85202e+10 1.59914e+12 -2.96123e+13 -3.74648e+12 -8.02085e+13)
(-2.86296e+13 -1.30948e+12 5.93783e+12 -2.5263e+13 -4.46047e+12 -6.82654e+13)
(-2.31963e+13 -1.35696e+12 7.34544e+12 -1.92984e+13 -3.28215e+12 -5.3628e+13)
(-1.93944e+13 -5.82075e+11 6.87494e+12 -1.51822e+13 -1.09563e+12 -4.43872e+13)
(-1.79412e+13 2.64786e+10 6.24536e+12 -1.41183e+13 1.34744e+12 -4.24859e+13)
(-1.55762e+13 -1.63738e+11 7.53929e+12 -1.368e+13 3.26002e+12 -4.11966e+13)
(-7.7715e+12 -1.30499e+12 6.61143e+12 -1.23826e+13 9.06087e+12 -3.91167e+13)
(-1.99065e+13 2.20642e+12 -1.23887e+13 -4.09639e+13 -1.17117e+13 -9.4997e+13)
(-2.51788e+13 -1.81052e+12 -7.93434e+12 -2.91465e+13 -2.1645e+13 -6.84085e+13)
(-1.8505e+13 -2.38991e+12 -3.41736e+12 -1.73587e+13 -1.43333e+13 -4.41623e+13)
(-8.67129e+12 -2.00028e+12 -3.01588e+12 -6.26339e+12 -3.96221e+12 -1.88595e+13)
(-3.20921e+12 -5.6126e+11 -4.92093e+12 -5.68133e+11 2.707e+12 -5.29614e+12)
(-5.40275e+12 1.17541e+12 -7.30403e+12 -3.1741e+12 4.44893e+12 -1.11055e+13)
(-1.33376e+13 1.86421e+12 -7.44937e+12 -1.20922e+13 2.74304e+12 -3.17378e+13)
(-2.09197e+13 8.86532e+11 -3.80785e+12 -2.05368e+13 -6.02582e+11 -5.08428e+13)
(-2.12409e+13 -8.78953e+11 8.37891e+11 -2.12068e+13 -3.89995e+12 -5.06984e+13)
(-1.61751e+13 -2.13881e+12 3.25858e+12 -1.58744e+13 -4.8099e+12 -3.69884e+13)
(-8.8713e+12 -2.27182e+12 3.46433e+12 -8.15527e+12 -3.16391e+12 -1.88935e+13)
(-2.91806e+12 -1.40801e+12 2.37394e+12 -1.9922e+12 -3.388e+11 -4.82234e+12)
(-5.94145e+11 -1.84711e+11 8.88806e+11 2.62377e+11 1.81709e+12 3.91657e+11)
(-2.03615e+12 7.76088e+11 -3.71988e+11 -1.36514e+12 2.15427e+12 -3.24662e+12)
(-5.70809e+12 1.16558e+12 -1.11261e+12 -5.24408e+12 9.35033e+11 -1.20569e+13)
(-9.41554e+12 9.45781e+11 -1.19086e+12 -9.25619e+12 -4.32694e+11 -2.09284e+13)
(-1.11369e+13 2.38182e+11 -5.6886e+11 -1.13266e+13 -5.75961e+11 -2.5022e+13)
(-9.85264e+12 -5.52177e+11 2.94069e+11 -9.99129e+12 5.51784e+11 -2.16607e+13)
(-6.62199e+12 -6.87751e+11 2.20463e+11 -5.95663e+12 1.83951e+12 -1.32598e+13)
(-4.76525e+12 2.501e+11 -1.66451e+12 -3.03563e+12 2.51561e+12 -8.15913e+12)
(-7.42107e+12 1.67555e+12 -4.45482e+12 -5.30158e+12 2.34029e+12 -1.48374e+13)
(-1.43989e+13 2.33334e+12 -5.45342e+12 -1.29281e+13 1.35505e+12 -3.31938e+13)
(-2.13065e+13 1.47056e+12 -2.58637e+12 -2.08055e+13 -4.09593e+11 -5.09047e+13)
(-2.19638e+13 -1.42336e+11 1.74226e+12 -2.19761e+13 -2.74548e+12 -5.18577e+13)
(-1.87892e+13 -1.17131e+12 4.35405e+12 -1.84514e+13 -3.63055e+12 -4.30437e+13)
(-1.49967e+13 -1.12579e+12 5.45715e+12 -1.38984e+13 -2.28313e+12 -3.37102e+13)
(-1.25008e+13 -4.12512e+11 5.79758e+12 -1.07293e+13 2.02767e+11 -2.82478e+13)
(-1.14894e+13 5.90381e+10 5.9103e+12 -9.68906e+12 2.74656e+12 -2.68222e+13)
(-9.65003e+12 -2.67123e+11 6.73407e+12 -9.02479e+12 4.34968e+12 -2.47495e+13)
(-4.45448e+12 -1.31187e+12 4.86438e+12 -8.18715e+12 9.07222e+12 -2.12991e+13)
(-1.14796e+13 2.21416e+12 -9.8493e+12 -2.94023e+13 -1.62294e+13 -5.05328e+13)
(-1.33646e+13 -9.17991e+11 -9.71226e+12 -1.8171e+13 -2.23364e+13 -3.53167e+13)
(-8.83544e+12 -1.583e+12 -7.30278e+12 -9.15513e+12 -1.37455e+13 -2.09179e+13)
(-2.11514e+12 -1.42256e+12 -6.52242e+12 -1.28895e+12 -3.22821e+12 -5.07802e+12)
(1.38874e+12 -3.56413e+11 -6.20614e+12 2.43566e+12 3.37359e+12 2.93332e+12)
(-6.16817e+11 9.87933e+11 -6.01297e+12 6.67186e+10 5.00613e+12 -1.82638e+12)
(-6.65815e+12 1.48216e+12 -4.98254e+12 -6.89418e+12 3.14197e+12 -1.61941e+13)
(-1.23357e+13 5.81008e+11 -2.31857e+12 -1.3372e+13 -3.82991e+11 -2.91563e+13)
(-1.24696e+13 -9.10581e+11 1.68704e+11 -1.37421e+13 -4.02253e+12 -2.82054e+13)
(-8.92408e+12 -1.87445e+12 8.31864e+11 -9.82646e+12 -5.07511e+12 -1.89418e+13)
(-4.00751e+12 -1.89587e+12 6.06743e+11 -4.38829e+12 -3.33478e+12 -7.76522e+12)
(-9.27056e+10 -1.14513e+12 4.18945e+11 -1.36809e+11 -3.87314e+11 5.59373e+11)
(1.35301e+12 -1.44273e+11 4.62323e+11 1.36584e+12 1.78945e+12 3.50407e+12)
(2.76244e+11 6.23128e+11 5.18141e+11 1.83177e+11 2.07776e+12 1.19415e+12)
(-2.25419e+12 9.24403e+11 3.39986e+11 -2.54434e+12 7.7801e+11 -4.12446e+12)
(-4.7259e+12 7.44585e+11 -5.69755e+10 -5.36079e+12 -7.34759e+11 -9.33326e+12)
(-5.76456e+12 1.95812e+11 -3.87212e+11 -6.81011e+12 -1.07456e+12 -1.15052e+13)
(-4.73942e+12 -3.93374e+11 -4.73427e+11 -5.82309e+12 1.02309e+09 -9.18006e+12)
(-2.45903e+12 -4.45535e+11 -6.29383e+11 -2.87153e+12 1.5701e+12 -4.04157e+12)
(-1.19285e+12 3.52243e+11 -1.34992e+12 -6.99708e+11 2.67705e+12 -1.18775e+12)
(-3.07171e+12 1.50652e+12 -2.4392e+12 -2.32793e+12 2.76282e+12 -5.85492e+12)
(-7.934e+12 1.97908e+12 -2.59808e+12 -7.94065e+12 1.74721e+12 -1.7941e+13)
(-1.26495e+13 1.15071e+12 -6.24504e+11 -1.3698e+13 -2.70658e+11 -2.91774e+13)
(-1.26283e+13 -2.2266e+11 1.82787e+12 -1.42249e+13 -3.03406e+12 -2.83163e+13)
(-1.02178e+13 -9.72664e+11 3.04059e+12 -1.15476e+13 -3.99028e+12 -2.21125e+13)
(-7.75134e+12 -8.16874e+11 3.93231e+12 -8.38133e+12 -2.31719e+12 -1.68861e+13)
(-6.29344e+12 -1.90199e+11 4.9566e+12 -6.12082e+12 6.32092e+11 -1.42557e+13)
(-5.66029e+12 1.15757e+11 5.63926e+12 -5.08746e+12 3.38546e+12 -1.31399e+13)
(-4.36399e+12 -3.45367e+11 5.90918e+12 -4.22044e+12 4.77525e+12 -1.05659e+13)
(-1.60704e+12 -1.26647e+12 3.19874e+12 -3.88228e+12 8.41724e+12 -6.40256e+12)
(-4.94246e+12 2.22342e+12 -7.44405e+12 -1.88758e+13 -2.20709e+13 -1.68516e+13)
(-3.74021e+12 3.04117e+10 -1.07082e+13 -8.16881e+12 -2.36963e+13 -9.10462e+12)
(-6.98381e+11 -7.42591e+11 -1.02344e+13 -1.58651e+12 -1.36306e+13 -1.84019e+12)
(3.5931e+12 -8.19907e+11 -9.23659e+12 3.41034e+12 -2.88953e+12 6.72874e+12)
(5.52002e+12 -1.45869e+11 -7.19862e+12 5.38469e+12 3.68592e+12 1.03827e+13)
(3.6585e+12 7.75638e+11 -4.98924e+12 3.25654e+12 5.17819e+12 6.39617e+12)
(-8.53587e+11 1.06095e+12 -3.05185e+12 -1.90972e+12 3.03967e+12 -3.09281e+12)
(-4.99894e+12 2.60993e+11 -1.2199e+12 -6.60251e+12 -7.73099e+11 -1.12914e+13)
(-5.09924e+12 -9.1756e+11 -4.80598e+11 -6.77095e+12 -4.69397e+12 -1.00636e+13)
(-2.86807e+12 -1.56418e+12 -1.17886e+12 -4.20411e+12 -5.77093e+12 -4.51159e+12)
(8.41358e+10 -1.47334e+12 -1.70516e+12 -8.70188e+11 -3.82188e+12 1.21755e+12)
(2.33946e+12 -8.50592e+11 -1.1608e+12 1.63405e+12 -6.58588e+11 5.07673e+12)
(3.06027e+12 -9.38421e+10 9.55687e+10 2.44871e+12 1.59262e+12 6.2327e+12)
(2.26237e+12 4.60174e+11 1.19372e+12 1.66957e+12 1.83475e+12 4.90993e+12)
(6.41711e+11 6.61904e+11 1.45918e+12 -1.18297e+10 4.11271e+11 2.26174e+12)
(-8.45051e+11 5.22778e+11 8.12401e+11 -1.74615e+12 -1.30414e+12 -1.55462e+11)
(-1.34646e+12 1.43611e+11 -2.48004e+11 -2.63886e+12 -1.8737e+12 -8.989e+11)
(-5.23547e+11 -2.32344e+11 -1.0332e+12 -1.96876e+12 -8.49494e+11 6.25737e+11)
(1.04228e+12 -2.01042e+11 -1.19666e+12 1.7815e+10 1.00698e+12 3.38673e+12)
(1.91232e+12 4.3791e+11 -9.65568e+11 1.54753e+12 2.52458e+12 4.74334e+12)
(7.36668e+11 1.29324e+12 -7.17336e+11 5.48468e+11 2.79634e+12 1.86851e+12)
(-2.36484e+12 1.5683e+12 -2.57678e+11 -3.19115e+12 1.6111e+12 -5.18198e+12)
(-5.28743e+12 7.97313e+11 9.24213e+11 -7.00162e+12 -7.79742e+11 -1.1343e+13)
(-4.80386e+12 -3.0263e+11 1.84669e+12 -6.99234e+12 -3.94319e+12 -9.3724e+12)
(-3.0338e+12 -7.5658e+11 1.99981e+12 -5.10814e+12 -4.9328e+12 -5.31046e+12)
(-1.58404e+12 -4.83989e+11 2.78474e+12 -3.17843e+12 -2.92011e+12 -3.11295e+12)
(-8.92498e+11 5.68253e+10 4.36945e+12 -1.70162e+12 5.33301e+11 -2.4307e+12)
(-5.61351e+11 2.00983e+11 5.45058e+12 -6.50201e+11 3.58141e+12 -1.44532e+12)
(1.99325e+11 -3.79307e+11 5.10197e+12 3.84084e+11 4.88531e+12 1.38272e+12)
(7.32192e+11 -1.17973e+12 1.65976e+12 1.92987e+11 7.53256e+12 5.6076e+12)
(-2.77606e+11 2.2123e+12 -5.24247e+12 -9.93476e+12 -2.80938e+13 6.64453e+12)
(3.8143e+12 9.19482e+11 -1.10333e+13 4.71719e+11 -2.5153e+13 1.09553e+13)
(5.97971e+12 4.36086e+10 -1.23e+13 5.056e+12 -1.36722e+13 1.35673e+13)
(8.45631e+12 -2.50535e+11 -1.1217e+13 7.65567e+12 -2.76653e+12 1.67232e+13)
(9.14297e+12 5.61264e+10 -7.9138e+12 8.16787e+12 3.7664e+12 1.70106e+13)
(7.37975e+12 5.70956e+11 -4.21139e+12 6.26524e+12 5.12854e+12 1.35448e+13)
(4.05915e+12 6.53044e+11 -1.62311e+12 2.64379e+12 2.71711e+12 7.72633e+12)
(1.10096e+12 -3.84211e+10 -4.8464e+11 -5.29283e+11 -1.38176e+12 3.08571e+12)
(9.15755e+11 -9.05907e+11 -1.10417e+12 -6.00532e+11 -5.49e+12 4.18306e+12)
(2.03591e+12 -1.25316e+12 -2.79409e+12 7.48234e+11 -6.54231e+12 6.68927e+12)
(3.41805e+12 -1.06037e+12 -3.49991e+12 2.24922e+12 -4.39845e+12 8.25101e+12)
(4.36617e+12 -5.60785e+11 -2.38128e+12 3.24664e+12 -1.03766e+12 8.75988e+12)
(4.50719e+12 -3.71455e+10 -2.06823e+11 3.46604e+12 1.29874e+12 8.55251e+12)
(3.91205e+12 3.10221e+11 1.67427e+12 3.03036e+12 1.52564e+12 7.93065e+12)
(2.98808e+12 4.12299e+11 2.26802e+12 2.2432e+12 5.74568e+09 7.24199e+12)
(2.25413e+12 3.08357e+11 1.43245e+12 1.42816e+12 -1.89438e+12 6.85759e+12)
(2.15554e+12 8.77382e+10 -1.53771e+11 9.99392e+11 -2.6835e+12 7.1146e+12)
(2.82571e+12 -8.99097e+10 -1.40881e+12 1.39502e+12 -1.72778e+12 8.03796e+12)
(3.88328e+12 1.53298e+10 -1.51462e+12 2.57882e+12 3.51221e+11 9.16425e+12)
(4.52107e+12 4.99049e+11 -5.33115e+11 3.60439e+12 2.20193e+12 9.64051e+12)
(3.96775e+12 1.06685e+12 7.12041e+11 3.19731e+12 2.60988e+12 8.34362e+12)
(2.28897e+12 1.15529e+12 1.58308e+12 1.10421e+12 1.22747e+12 5.23197e+12)
(7.84864e+11 4.53491e+11 2.07451e+12 -1.02186e+12 -1.53496e+12 2.9162e+12)
(1.54899e+12 -3.75799e+11 1.79725e+12 -6.05571e+11 -5.01425e+12 5.42724e+12)
(2.79453e+12 -5.52263e+11 1.20998e+12 5.77134e+11 -6.0335e+12 7.75269e+12)
(3.50308e+12 -1.66394e+11 1.99438e+12 1.47772e+12 -3.75056e+12 7.82832e+12)
(3.67522e+12 3.05349e+11 4.03442e+12 2.33492e+12 1.6557e+11 7.32334e+12)
(3.78601e+12 3.14122e+11 5.36475e+12 3.43222e+12 3.56614e+12 8.35924e+12)
(4.04304e+12 -3.58121e+11 4.36096e+12 4.59332e+12 4.9233e+12 1.12617e+13)
(2.58462e+12 -1.05749e+12 2.8449e+11 3.83882e+12 6.72221e+12 1.5001e+13)
(2.67053e+12 2.15728e+12 -3.30653e+12 -2.79814e+12 -3.34422e+13 2.1065e+13)
(9.50874e+12 1.66555e+12 -1.08371e+13 7.60694e+12 -2.6351e+13 2.56791e+13)
(1.13264e+13 7.21721e+11 -1.36217e+13 1.0647e+13 -1.37069e+13 2.57932e+13)
(1.25113e+13 2.53345e+11 -1.25488e+13 1.13483e+13 -2.75408e+12 2.50698e+13)
(1.22452e+13 2.4275e+11 -8.37529e+12 1.07047e+13 3.70914e+12 2.28019e+13)
(1.05409e+13 3.94146e+11 -3.64346e+12 9.00479e+12 4.98028e+12 1.96499e+13)
(8.11799e+12 2.91016e+11 -6.36332e+11 6.64852e+12 2.36148e+12 1.6493e+13)
(6.04534e+12 -2.9561e+11 -6.65613e+10 4.70208e+12 -1.96142e+12 1.43969e+13)
(5.69503e+12 -8.79609e+11 -1.69705e+12 4.63279e+12 -6.15548e+12 1.50836e+13)
(5.89463e+12 -9.69014e+11 -4.0559e+12 4.92393e+12 -7.17573e+12 1.51301e+13)
(6.05327e+12 -6.91626e+11 -4.83475e+12 4.89886e+12 -4.91976e+12 1.35896e+13)
(6.00243e+12 -2.98869e+11 -3.27782e+12 4.6569e+12 -1.44123e+12 1.16743e+13)
(5.69363e+12 2.25293e+10 -4.43021e+11 4.38522e+12 9.66108e+11 1.0466e+13)
(5.23938e+12 1.86865e+11 1.99069e+12 4.22784e+12 1.22194e+12 1.03207e+13)
(4.82886e+12 1.96717e+11 2.80721e+12 4.16768e+12 -3.2916e+11 1.10078e+13)
(4.64659e+12 1.18801e+11 1.83301e+12 4.0927e+12 -2.35461e+12 1.20287e+13)
(4.83473e+12 3.22756e+10 -1.03523e+11 4.0262e+12 -3.33024e+12 1.2935e+13)
(5.39222e+12 2.19898e+10 -1.63386e+12 4.19254e+12 -2.46961e+12 1.34174e+13)
(6.10886e+12 1.86367e+11 -1.63126e+12 4.74564e+12 -2.66238e+11 1.34947e+13)
(6.64034e+12 5.32023e+11 -7.78973e+10 5.4074e+12 1.81537e+12 1.3561e+13)
(6.62542e+12 8.47665e+11 1.86608e+12 5.53727e+12 2.32691e+12 1.36329e+13)
(6.06523e+12 7.75044e+11 2.96837e+12 4.83002e+12 7.85405e+11 1.35223e+13)
(5.6483e+12 1.46919e+11 2.866e+12 4.09354e+12 -2.27805e+12 1.40151e+13)
(6.554e+12 -4.37116e+11 1.68468e+12 4.78882e+12 -5.96604e+12 1.66475e+13)
(7.38e+12 -3.76293e+11 6.3564e+11 5.37683e+12 -7.02725e+12 1.75822e+13)
(7.57824e+12 1.1121e+11 1.51876e+12 5.47145e+12 -4.58145e+12 1.62589e+13)
(7.43902e+12 5.3812e+11 3.93488e+12 5.8824e+12 -2.88975e+11 1.51756e+13)
(7.40921e+12 4.50527e+11 5.40018e+12 7.05284e+12 3.4963e+12 1.64269e+13)
(7.21628e+12 -2.79092e+11 3.73845e+12 8.29913e+12 5.04074e+12 1.93029e+13)
(4.00529e+12 -9.02931e+11 -8.94473e+11 6.93979e+12 6.1639e+12 2.21692e+13)
(4.15114e+12 2.04165e+12 -1.68402e+12 2.53475e+12 -3.75144e+13 2.78657e+13)
(1.35916e+13 2.21627e+12 -1.02789e+13 1.3234e+13 -2.70907e+13 3.5896e+13)
(1.54851e+13 1.26466e+12 -1.43323e+13 1.51568e+13 -1.36717e+13 3.5275e+13)
(1.58073e+13 6.78562e+11 -1.33275e+13 1.44358e+13 -2.79983e+12 3.19147e+13)
(1.48309e+13 4.11965e+11 -8.6107e+12 1.29325e+13 3.58035e+12 2.7758e+13)
(1.3157e+13 2.55295e+11 -3.24359e+12 1.14121e+13 4.81811e+12 2.47679e+13)
(1.13872e+13 -8.6985e+09 -1.92884e+10 1.00456e+13 2.08569e+12 2.34582e+13)
(9.94689e+12 -4.99937e+11 9.01699e+10 9.03831e+12 -2.373e+12 2.30818e+13)
(9.38743e+12 -8.41056e+11 -2.25415e+12 8.89549e+12 -6.56014e+12 2.31927e+13)
(8.84047e+12 -7.24946e+11 -5.01566e+12 8.30053e+12 -7.56362e+12 2.12879e+13)
(8.06964e+12 -3.8396e+11 -5.78033e+12 7.05698e+12 -5.30578e+12 1.75031e+13)
(7.27885e+12 -7.68803e+10 -3.89574e+12 5.84051e+12 -1.81472e+12 1.3904e+13)
(6.63255e+12 8.23777e+10 -6.1375e+11 5.18258e+12 6.37265e+11 1.19947e+13)
(6.27197e+12 9.58498e+10 2.17831e+12 5.2412e+12 9.69014e+11 1.21605e+13)
(6.22469e+12 2.52548e+10 3.12549e+12 5.74436e+12 -5.33538e+11 1.37653e+13)
(6.42796e+12 -3.72055e+10 2.0509e+12 6.2342e+12 -2.60795e+12 1.5695e+13)
(6.80732e+12 -2.03622e+10 -9.43222e+10 6.43156e+12 -3.72847e+12 1.69755e+13)
(7.28254e+12 9.8687e+10 -1.74563e+12 6.41191e+12 -2.99281e+12 1.71393e+13)
(7.78551e+12 3.05442e+11 -1.5998e+12 6.49552e+12 -7.71023e+11 1.66033e+13)
(8.2984e+12 5.36592e+11 3.74379e+11 6.91851e+12 1.43645e+12 1.65902e+13)
(8.73666e+12 6.47026e+11 2.77058e+12 7.5182e+12 2.03074e+12 1.78255e+13)
(9.03087e+12 4.46484e+11 3.95791e+12 7.93218e+12 4.01644e+11 1.99364e+13)
(9.41945e+12 -1.07744e+11 3.35204e+12 8.29221e+12 -2.85966e+12 2.23946e+13)
(1.03706e+13 -4.83244e+11 1.51898e+12 9.15482e+12 -6.64936e+12 2.48708e+13)
(1.08719e+13 -2.35286e+11 2.36309e+11 9.25865e+12 -7.77102e+12 2.4711e+13)
(1.07457e+13 3.36615e+11 1.30401e+12 8.76151e+12 -5.27787e+12 2.254e+13)
(1.04593e+13 7.43693e+11 4.04408e+12 8.88919e+12 -7.11739e+11 2.13307e+13)
(1.03603e+13 6.02526e+11 5.57032e+12 1.01552e+13 3.46983e+12 2.29304e+13)
(9.78799e+12 -1.4724e+11 3.28496e+12 1.14436e+13 5.31548e+12 2.57516e+13)
(5.0628e+12 -7.18893e+11 -1.84679e+12 9.43028e+12 5.923e+12 2.75343e+13)
(4.46939e+12 1.85866e+12 -4.01802e+11 6.20671e+12 -3.994e+13 2.87042e+13)
(1.63183e+13 2.54739e+12 -9.50571e+12 1.74307e+13 -2.72863e+13 4.24012e+13)
(1.85931e+13 1.66474e+12 -1.45587e+13 1.86098e+13 -1.3564e+13 4.23797e+13)
(1.83929e+13 1.02416e+12 -1.36478e+13 1.68921e+13 -2.88733e+12 3.73741e+13)
(1.6911e+13 5.64248e+11 -8.64881e+12 1.4799e+13 3.41961e+12 3.18856e+13)
(1.52522e+13 1.56924e+11 -2.97034e+12 1.34385e+13 4.69134e+12 2.89621e+13)
(1.39384e+13 -2.41388e+11 3.02263e+11 1.28097e+13 1.94436e+12 2.88602e+13)
(1.29247e+13 -6.48656e+11 4.37998e+10 1.24789e+13 -2.55774e+12 2.95511e+13)
(1.21433e+13 -7.9124e+11 -2.76947e+12 1.22131e+13 -6.66181e+12 2.90173e+13)
(1.10076e+13 -5.23486e+11 -5.72481e+12 1.09051e+13 -7.67353e+12 2.56002e+13)
(9.55188e+12 -1.40908e+11 -6.40896e+12 8.73223e+12 -5.52498e+12 2.02466e+13)
(8.23287e+12 1.0152e+11 -4.283e+12 6.78686e+12 -2.12801e+12 1.55375e+13)
(7.34377e+12 1.40028e+11 -7.21952e+11 5.84142e+12 3.39013e+11 1.31699e+13)
(7.04281e+12 3.70473e+10 2.2717e+12 6.06036e+12 7.89814e+11 1.3533e+13)
(7.24013e+12 -1.00269e+11 3.27231e+12 6.97724e+12 -5.85506e+11 1.571e+13)
(7.6968e+12 -1.5745e+11 2.12404e+12 7.87256e+12 -2.63182e+12 1.81708e+13)
(8.19185e+12 -6.88458e+10 -1.22321e+11 8.2461e+12 -3.85596e+12 1.9619e+13)
(8.60644e+12 1.40814e+11 -1.78041e+12 8.07967e+12 -3.27392e+12 1.95529e+13)
(8.98632e+12 3.73364e+11 -1.47204e+12 7.83289e+12 -1.13187e+12 1.87077e+13)
(9.53351e+12 5.14672e+11 7.9974e+11 8.11715e+12 1.10652e+12 1.88225e+13)
(1.0339e+13 4.69422e+11 3.45428e+12 9.11039e+12 1.77071e+12 2.10176e+13)
(1.12631e+13 1.76316e+11 4.61634e+12 1.03934e+13 1.3707e+11 2.4715e+13)
(1.22248e+13 -3.05712e+11 3.59086e+12 1.15778e+13 -3.21129e+12 2.84743e+13)
(1.31639e+13 -5.1231e+11 1.31341e+12 1.25216e+13 -7.00905e+12 3.06388e+13)
(1.34274e+13 -1.28735e+11 -2.70732e+10 1.22508e+13 -8.21042e+12 2.96424e+13)
(1.31224e+13 5.07122e+11 1.29353e+12 1.13545e+13 -5.77555e+12 2.70285e+13)
(1.28101e+13 9.15416e+11 4.32934e+12 1.13393e+13 -1.03494e+12 2.60006e+13)
(1.26999e+13 7.60222e+11 5.88195e+12 1.2713e+13 3.53953e+12 2.80375e+13)
(1.18288e+13 2.53415e+10 3.04486e+12 1.39956e+13 5.76733e+12 3.08288e+13)
(5.82277e+12 -5.09422e+11 -2.54346e+12 1.12696e+13 5.96898e+12 3.14735e+13)
(3.95302e+12 1.61079e+12 5.36965e+11 8.44406e+12 -4.05621e+13 2.53057e+13)
(1.79307e+13 2.6577e+12 -8.64043e+12 2.03171e+13 -2.69347e+13 4.59241e+13)
(2.07704e+13 1.92715e+12 -1.44132e+13 2.10576e+13 -1.34139e+13 4.73989e+13)
(2.03074e+13 1.29578e+12 -1.35969e+13 1.87044e+13 -3.0232e+12 4.15271e+13)
(1.84951e+13 7.00855e+11 -8.51805e+12 1.62574e+13 3.24239e+12 3.51844e+13)
(1.68492e+13 9.64482e+10 -2.78671e+12 1.50426e+13 4.61766e+12 3.22854e+13)
(1.58372e+13 -4.1e+11 3.97898e+11 1.49313e+13 1.94695e+12 3.29013e+13)
(1.50877e+13 -7.43968e+11 -1.49703e+11 1.50493e+13 -2.51516e+12 3.41564e+13)
(1.40977e+13 -7.298e+11 -3.23533e+12 1.46399e+13 -6.47808e+12 3.29858e+13)
(1.25173e+13 -3.59859e+11 -6.22853e+12 1.27896e+13 -7.52351e+12 2.84393e+13)
(1.05791e+13 4.30179e+10 -6.7866e+12 9.95016e+12 -5.5802e+12 2.20431e+13)
(8.90217e+12 2.38402e+11 -4.48511e+12 7.4945e+12 -2.37059e+12 1.66583e+13)
(7.84887e+12 1.93426e+11 -7.72462e+11 6.35007e+12 8.37532e+10 1.40252e+13)
(7.58413e+12 6.33732e+09 2.30115e+12 6.6811e+12 6.88787e+11 1.45125e+13)
(7.93494e+12 -1.83627e+11 3.29282e+12 7.88076e+12 -4.91264e+11 1.70107e+13)
(8.54323e+12 -2.43937e+11 2.08777e+12 9.04392e+12 -2.44154e+12 1.97262e+13)
(9.09642e+12 -1.12364e+11 -1.8325e+11 9.52062e+12 -3.73312e+12 2.11938e+13)
(9.46471e+12 1.52486e+11 -1.77039e+12 9.2421e+12 -3.32907e+12 2.09581e+13)
(9.78083e+12 3.95494e+11 -1.29429e+12 8.77752e+12 -1.34865e+12 1.99997e+13)