/*--------------------------------*- C++ -*----------------------------------*\
| =========                 |                                                 |
| \\      /  F ield         | OpenFOAM: The Open Source CFD Toolbox           |
|  \\    /   O peration     | Version:  2106                                  |
|   \\  /    A nd           | Website:  www.openfoam.com                      |
|    \\/     M anipulation  |                                                 |
\*---------------------------------------------------------------------------*/
FoamFile
{
    version     2.0;
    format      ascii;
    arch        "LSB;label=32;scalar=64";
    class       volVectorField;
    location    "401";
    object      D;
}
// * * * * * * * * * * * * * * * * * * * * * * * * * * * * * * * * * * * * * //

dimensions      [0 1 0 0 0 0 0];

internalField   nonuniform List<vector> 
9000
(
(1.14034e-05 2.08564e-05 3.13551e-06)
(1.32566e-06 2.19615e-05 8.31127e-08)
(2.19285e-07 2.33136e-05 1.23061e-06)
(3.90463e-08 2.36162e-05 1.44409e-06)
(4.94576e-09 2.36254e-05 1.44739e-06)
(1.9059e-09 2.3591e-05 1.42574e-06)
(2.09335e-09 2.36106e-05 1.43784e-06)
(8.10514e-10 2.35905e-05 1.42575e-06)
(2.04165e-09 2.35899e-05 1.42532e-06)
(2.36476e-10 2.36171e-05 1.44276e-06)
(-2.29901e-09 2.3602e-05 1.4315e-06)
(1.78246e-09 2.35745e-05 1.41332e-06)
(2.95178e-09 2.36135e-05 1.44048e-06)
(-1.15015e-09 2.36144e-05 1.44075e-06)
(1.10033e-10 2.36055e-05 1.43333e-06)
(1.18165e-09 2.36183e-05 1.44331e-06)
(-1.55192e-09 2.3614e-05 1.44049e-06)
(-2.18101e-10 2.3606e-05 1.43369e-06)
(-1.50597e-09 2.36149e-05 1.44141e-06)
(-1.60945e-09 2.35762e-05 1.41492e-06)
(1.56822e-09 2.35875e-05 1.42368e-06)
(2.06806e-10 2.36156e-05 1.4416e-06)
(-2.21455e-09 2.36178e-05 1.44309e-06)
(-2.1739e-09 2.35923e-05 1.42679e-06)
(-2.28862e-09 2.36129e-05 1.44017e-06)
(-7.57029e-09 2.36001e-05 1.43115e-06)
(-3.84651e-08 2.35977e-05 1.43089e-06)
(-2.17525e-07 2.33073e-05 1.22672e-06)
(-1.32549e-06 2.19612e-05 8.29412e-08)
(-1.14036e-05 2.08554e-05 3.13509e-06)
(1.10767e-05 1.2566e-05 -5.84579e-06)
(1.22331e-06 1.31901e-05 -9.25899e-06)
(1.43308e-07 1.40076e-05 -8.68739e-06)
(2.1358e-08 1.42123e-05 -8.60706e-06)
(5.36562e-09 1.42184e-05 -8.60787e-06)
(2.86357e-09 1.42012e-05 -8.60609e-06)
(2.15389e-09 1.42078e-05 -8.60944e-06)
(1.29954e-09 1.42016e-05 -8.60522e-06)
(1.09346e-09 1.42011e-05 -8.60549e-06)
(8.15082e-10 1.42117e-05 -8.60893e-06)
(3.09905e-10 1.42085e-05 -8.60673e-06)
(4.83859e-10 1.41979e-05 -8.60297e-06)
(4.11028e-10 1.42087e-05 -8.6093e-06)
(-1.33674e-10 1.42076e-05 -8.60833e-06)
(-6.02942e-11 1.4211e-05 -8.6067e-06)
(7.93361e-12 1.42126e-05 -8.60886e-06)
(-2.29371e-10 1.42075e-05 -8.60837e-06)
(-1.0553e-10 1.42112e-05 -8.60666e-06)
(-3.01319e-10 1.42103e-05 -8.609e-06)
(-5.64919e-10 1.41991e-05 -8.60297e-06)
(-8.26613e-10 1.41997e-05 -8.60497e-06)
(-1.09491e-09 1.421e-05 -8.6097e-06)
(-1.45748e-09 1.42123e-05 -8.60895e-06)
(-1.89964e-09 1.42025e-05 -8.60541e-06)
(-2.63536e-09 1.42081e-05 -8.6098e-06)
(-5.5548e-09 1.42091e-05 -8.60408e-06)
(-2.13706e-08 1.42068e-05 -8.60494e-06)
(-1.43312e-07 1.4001e-05 -8.68738e-06)
(-1.22343e-06 1.31898e-05 -9.25895e-06)
(-1.10769e-05 1.25649e-05 -5.846e-06)
(1.11476e-05 7.77863e-06 -7.40971e-06)
(1.21927e-06 8.20116e-06 -1.09328e-05)
(1.30214e-07 8.74829e-06 -1.04556e-05)
(1.57927e-08 8.89531e-06 -1.04013e-05)
(5.48995e-09 8.90133e-06 -1.04032e-05)
(3.18739e-09 8.89605e-06 -1.04003e-05)
(2.16287e-09 8.8932e-06 -1.04035e-05)
(1.68682e-09 8.89856e-06 -1.04003e-05)
(5.61472e-10 8.89785e-06 -1.04006e-05)
(6.90598e-10 8.8964e-06 -1.04033e-05)
(1.36708e-09 8.8941e-06 -1.04025e-05)
(1.87424e-10 8.896e-06 -1.03989e-05)
(-8.63167e-10 8.89292e-06 -1.04019e-05)
(4.76901e-11 8.89676e-06 -1.04016e-05)
(1.07969e-10 8.89604e-06 -1.04027e-05)
(-5.08547e-10 8.89716e-06 -1.04034e-05)
(9.85042e-11 8.89671e-06 -1.04017e-05)
(2.33517e-10 8.89602e-06 -1.04027e-05)
(3.5063e-10 8.89554e-06 -1.0403e-05)
(4.10231e-12 8.89683e-06 -1.03994e-05)
(-1.7137e-09 8.89748e-06 -1.03995e-05)
(-1.80859e-09 8.89361e-06 -1.04029e-05)
(-1.00134e-09 8.89699e-06 -1.04035e-05)
(-1.79586e-09 8.89826e-06 -1.0401e-05)
(-2.71616e-09 8.892e-06 -1.0403e-05)
(-4.6878e-09 8.9038e-06 -1.04e-05)
(-1.64537e-08 8.89163e-06 -1.04e-05)
(-1.30837e-07 8.74674e-06 -1.04538e-05)
(-1.2193e-06 8.20098e-06 -1.09326e-05)
(-1.11475e-05 7.77706e-06 -7.41015e-06)
(1.15332e-05 4.89123e-06 -7.09699e-06)
(1.26167e-06 5.16064e-06 -1.0743e-05)
(1.42981e-07 5.55822e-06 -1.02382e-05)
(1.69294e-08 5.66471e-06 -1.01799e-05)
(5.00344e-09 5.67048e-06 -1.01822e-05)
(3.1523e-09 5.66721e-06 -1.01819e-05)
(2.26936e-09 5.66358e-06 -1.01822e-05)
(1.56722e-09 5.66844e-06 -1.01833e-05)
(7.53226e-10 5.66679e-06 -1.01825e-05)
(8.46007e-10 5.66724e-06 -1.01821e-05)
(1.26963e-09 5.66546e-06 -1.01821e-05)
(1.40525e-11 5.66655e-06 -1.01821e-05)
(-6.69377e-10 5.66692e-06 -1.01809e-05)
(2.38874e-10 5.67222e-06 -1.01819e-05)
(5.24884e-12 5.66734e-06 -1.0182e-05)
(-4.05754e-10 5.66791e-06 -1.01823e-05)
(1.02931e-10 5.67215e-06 -1.0182e-05)
(2.03126e-10 5.6673e-06 -1.0182e-05)
(1.70822e-10 5.66664e-06 -1.01814e-05)
(-2.06458e-10 5.66732e-06 -1.01829e-05)
(-1.65458e-09 5.66775e-06 -1.01824e-05)
(-1.67905e-09 5.66683e-06 -1.01813e-05)
(-1.03856e-09 5.6679e-06 -1.01823e-05)
(-1.96587e-09 5.66684e-06 -1.01832e-05)
(-2.67511e-09 5.66444e-06 -1.0181e-05)
(-4.2801e-09 5.6719e-06 -1.01827e-05)
(-1.72815e-08 5.66227e-06 -1.01794e-05)
(-1.43638e-07 5.56137e-06 -1.02372e-05)
(-1.26192e-06 5.16059e-06 -1.07428e-05)
(-1.15326e-05 4.88881e-06 -7.09677e-06)
(1.2008e-05 3.08905e-06 -6.68432e-06)
(1.3205e-06 3.23626e-06 -1.04719e-05)
(1.61345e-07 3.53338e-06 -9.9313e-06)
(2.01162e-08 3.61065e-06 -9.86555e-06)
(4.80758e-09 3.61537e-06 -9.86744e-06)
(2.80246e-09 3.61789e-06 -9.86853e-06)
(2.2858e-09 3.61174e-06 -9.868e-06)
(1.45991e-09 3.61479e-06 -9.8688e-06)
(9.32371e-10 3.61487e-06 -9.86833e-06)
(1.06157e-09 3.61367e-06 -9.86778e-06)
(9.94535e-10 3.61194e-06 -9.86766e-06)
(1.1749e-10 3.61325e-06 -9.86811e-06)
(-4.21473e-10 3.61622e-06 -9.86832e-06)
(2.12936e-10 3.61727e-06 -9.86914e-06)
(5.13631e-11 3.61424e-06 -9.86789e-06)
(-3.70741e-10 3.61423e-06 -9.86824e-06)
(4.34986e-11 3.61716e-06 -9.86925e-06)
(2.0675e-10 3.61423e-06 -9.86791e-06)
(-6.27671e-11 3.61327e-06 -9.86714e-06)
(-4.19042e-10 3.61392e-06 -9.86861e-06)
(-1.31718e-09 3.61436e-06 -9.8682e-06)
(-1.42894e-09 3.61559e-06 -9.86785e-06)
(-1.35636e-09 3.61464e-06 -9.86814e-06)
(-2.12752e-09 3.61468e-06 -9.86874e-06)
(-2.44184e-09 3.61476e-06 -9.86794e-06)
(-4.23522e-09 3.61681e-06 -9.86806e-06)
(-2.04188e-08 3.60879e-06 -9.8652e-06)
(-1.61825e-07 3.53503e-06 -9.93209e-06)
(-1.32086e-06 3.23626e-06 -1.04717e-05)
(-1.20066e-05 3.08869e-06 -6.68404e-06)
(1.24226e-05 1.9496e-06 -6.45315e-06)
(1.37822e-06 2.01643e-06 -1.03624e-05)
(1.7805e-07 2.23347e-06 -9.79609e-06)
(2.35366e-08 2.2926e-06 -9.72607e-06)
(5.01106e-09 2.29819e-06 -9.72801e-06)
(2.64721e-09 2.30075e-06 -9.73006e-06)
(2.15016e-09 2.297e-06 -9.72894e-06)
(1.54098e-09 2.29681e-06 -9.72895e-06)
(9.41823e-10 2.2987e-06 -9.72922e-06)
(8.50173e-10 2.29526e-06 -9.72846e-06)
(8.18656e-10 2.29584e-06 -9.72856e-06)
(2.38758e-10 2.29484e-06 -9.72814e-06)
(-1.7117e-10 2.29656e-06 -9.72963e-06)
(2.93185e-10 2.29826e-06 -9.72917e-06)
(4.86679e-11 2.29639e-06 -9.7285e-06)
(-3.05626e-10 2.29556e-06 -9.72854e-06)
(1.16492e-11 2.29814e-06 -9.7292e-06)
(6.6026e-11 2.29644e-06 -9.72856e-06)
(-2.20635e-10 2.29476e-06 -9.72791e-06)
(-4.56039e-10 2.29582e-06 -9.72893e-06)
(-1.25443e-09 2.2962e-06 -9.72847e-06)
(-1.24964e-09 2.29821e-06 -9.72961e-06)
(-1.18468e-09 2.29678e-06 -9.72881e-06)
(-2.25246e-09 2.29779e-06 -9.72875e-06)
(-2.44304e-09 2.2985e-06 -9.73007e-06)
(-4.38754e-09 2.29763e-06 -9.72823e-06)
(-2.39804e-08 2.29038e-06 -9.72513e-06)
(-1.78347e-07 2.23437e-06 -9.79681e-06)
(-1.37839e-06 2.01646e-06 -1.03622e-05)
(-1.24208e-05 1.95141e-06 -6.45332e-06)
(1.27267e-05 1.22858e-06 -6.34291e-06)
(1.42606e-06 1.25155e-06 -1.03403e-05)
(1.91363e-07 1.40772e-06 -9.7575e-06)
(2.68198e-08 1.45122e-06 -9.6851e-06)
(5.28769e-09 1.45744e-06 -9.68688e-06)
(2.39154e-09 1.45757e-06 -9.6889e-06)
(2.04885e-09 1.4574e-06 -9.68863e-06)
(1.53508e-09 1.4551e-06 -9.68789e-06)
(8.12441e-10 1.4562e-06 -9.68852e-06)
(8.67653e-10 1.455e-06 -9.68807e-06)
(6.54184e-10 1.456e-06 -9.68797e-06)
(2.89239e-11 1.4543e-06 -9.68792e-06)
(1.7381e-10 1.45489e-06 -9.68828e-06)
(4.64713e-10 1.45593e-06 -9.68785e-06)
(-8.39806e-11 1.45471e-06 -9.68763e-06)
(-2.24378e-10 1.455e-06 -9.68787e-06)
(9.2925e-11 1.45581e-06 -9.68785e-06)
(-2.36906e-10 1.45481e-06 -9.68767e-06)
(-3.35429e-10 1.45418e-06 -9.6881e-06)
(-3.55736e-10 1.45361e-06 -9.68764e-06)
(-1.0044e-09 1.45366e-06 -9.68747e-06)
(-1.06097e-09 1.4574e-06 -9.68849e-06)
(-1.40057e-09 1.45514e-06 -9.68793e-06)
(-2.2906e-09 1.45639e-06 -9.68856e-06)
(-2.30012e-09 1.45761e-06 -9.68936e-06)
(-4.82071e-09 1.45474e-06 -9.68688e-06)
(-2.70634e-08 1.44994e-06 -9.68473e-06)
(-1.9145e-07 1.40824e-06 -9.75757e-06)
(-1.42624e-06 1.25158e-06 -1.03399e-05)
(-1.27254e-05 1.22986e-06 -6.34363e-06)
(1.29276e-05 7.73211e-07 -6.28751e-06)
(1.46183e-06 7.76325e-07 -1.03428e-05)
(2.01492e-07 8.86505e-07 -9.74955e-06)
(2.91251e-08 9.1728e-07 -9.67581e-06)
(5.55594e-09 9.21878e-07 -9.67779e-06)
(2.39302e-09 9.22108e-07 -9.67894e-06)
(1.92157e-09 9.23122e-07 -9.67952e-06)
(1.4196e-09 9.2062e-07 -9.67862e-06)
(9.10603e-10 9.21226e-07 -9.67882e-06)
(8.38385e-10 9.21974e-07 -9.67877e-06)
(4.99484e-10 9.21218e-07 -9.67897e-06)
(2.24476e-12 9.20833e-07 -9.67877e-06)
(2.60727e-10 9.22422e-07 -9.67912e-06)
(4.66786e-10 9.2114e-07 -9.67847e-06)
(-9.55706e-12 9.20238e-07 -9.6785e-06)
(-1.4986e-10 9.21839e-07 -9.67861e-06)
(-3.44033e-11 9.21016e-07 -9.6785e-06)
(-3.01895e-10 9.20384e-07 -9.67845e-06)
(-4.98594e-10 9.2057e-07 -9.67901e-06)
(-5.91242e-10 9.20235e-07 -9.67877e-06)
(-7.34853e-10 9.19703e-07 -9.67882e-06)
(-7.66612e-10 9.22e-07 -9.67916e-06)
(-1.34907e-09 9.2071e-07 -9.67868e-06)
(-2.2138e-09 9.22721e-07 -9.67917e-06)
(-2.47897e-09 9.24013e-07 -9.67999e-06)
(-5.18992e-09 9.20976e-07 -9.67787e-06)
(-2.91036e-08 9.16635e-07 -9.67601e-06)
(-2.01514e-07 8.86679e-07 -9.74931e-06)
(-1.46204e-06 7.76228e-07 -1.03421e-05)
(-1.29269e-05 7.74096e-07 -6.28796e-06)
(1.3052e-05 4.85868e-07 -6.2561e-06)
(1.48631e-06 4.82075e-07 -1.03473e-05)
(2.09064e-07 5.56924e-07 -9.74768e-06)
(3.08628e-08 5.79298e-07 -9.67303e-06)
(5.77466e-09 5.82645e-07 -9.67502e-06)
(2.42142e-09 5.8293e-07 -9.67589e-06)
(1.81748e-09 5.83491e-07 -9.67653e-06)
(1.36235e-09 5.82054e-07 -9.67588e-06)
(9.70029e-10 5.82377e-07 -9.67585e-06)
(8.05374e-10 5.82933e-07 -9.67584e-06)
(3.01138e-10 5.82444e-07 -9.6759e-06)
(1.59474e-10 5.82826e-07 -9.67653e-06)
(4.15716e-10 5.84291e-07 -9.67639e-06)
(2.74822e-10 5.82418e-07 -9.67572e-06)
(1.76897e-11 5.81552e-07 -9.67593e-06)
(-8.33525e-11 5.82765e-07 -9.67587e-06)
(-1.15635e-10 5.82301e-07 -9.67577e-06)
(-4.64067e-10 5.81828e-07 -9.6758e-06)
(-4.26535e-10 5.82034e-07 -9.6764e-06)
(-5.23763e-10 5.82723e-07 -9.67618e-06)
(-7.0616e-10 5.83247e-07 -9.6766e-06)
(-6.61956e-10 5.8289e-07 -9.67597e-06)
(-1.31522e-09 5.82163e-07 -9.6759e-06)
(-1.97974e-09 5.8336e-07 -9.67637e-06)
(-2.42024e-09 5.85122e-07 -9.6767e-06)
(-5.78995e-09 5.83311e-07 -9.67509e-06)
(-3.09117e-08 5.78692e-07 -9.67384e-06)
(-2.08905e-07 5.56879e-07 -9.74741e-06)
(-1.48648e-06 4.81828e-07 -1.0347e-05)
(-1.30518e-05 4.86588e-07 -6.25624e-06)
(1.31261e-05 3.04285e-07 -6.23698e-06)
(1.50213e-06 2.99543e-07 -1.03498e-05)
(2.14577e-07 3.49274e-07 -9.7459e-06)
(3.21735e-08 3.65192e-07 -9.67105e-06)
(5.9767e-09 3.67447e-07 -9.67307e-06)
(2.45737e-09 3.67859e-07 -9.67387e-06)
(1.74589e-09 3.68165e-07 -9.67412e-06)
(1.31229e-09 3.67374e-07 -9.67394e-06)
(9.71564e-10 3.6754e-07 -9.67388e-06)
(7.78697e-10 3.67824e-07 -9.67366e-06)
(3.78452e-10 3.67638e-07 -9.67378e-06)
(2.5159e-10 3.68765e-07 -9.67424e-06)
(3.40167e-10 3.68721e-07 -9.67423e-06)
(1.18849e-10 3.6764e-07 -9.67377e-06)
(1.9698e-12 3.66442e-07 -9.6739e-06)
(-3.21156e-12 3.67748e-07 -9.67386e-06)
(-1.51939e-10 3.67568e-07 -9.67385e-06)
(-5.12201e-10 3.67061e-07 -9.67405e-06)
(-4.04855e-10 3.68848e-07 -9.67458e-06)
(-3.65906e-10 3.67185e-07 -9.67424e-06)
(-6.30933e-10 3.68911e-07 -9.67476e-06)
(-7.55664e-10 3.67866e-07 -9.67384e-06)
(-1.29035e-09 3.67489e-07 -9.67391e-06)
(-1.83611e-09 3.68136e-07 -9.67405e-06)
(-2.41128e-09 3.69077e-07 -9.67431e-06)
(-6.13873e-09 3.68017e-07 -9.67324e-06)
(-3.22726e-08 3.65928e-07 -9.67203e-06)
(-2.14361e-07 3.4907e-07 -9.74574e-06)
(-1.50225e-06 2.99353e-07 -1.03497e-05)
(-1.31262e-05 3.05092e-07 -6.23685e-06)
(1.31693e-05 1.88915e-07 -6.22485e-06)
(1.51198e-06 1.85581e-07 -1.03507e-05)
(2.18468e-07 2.17955e-07 -9.74443e-06)
(3.30977e-08 2.28993e-07 -9.6694e-06)
(6.10648e-09 2.29956e-07 -9.6715e-06)
(2.54213e-09 2.30852e-07 -9.67225e-06)
(1.70325e-09 2.31058e-07 -9.67233e-06)
(1.26619e-09 2.3064e-07 -9.67232e-06)
(9.41062e-10 2.30743e-07 -9.67229e-06)
(7.52939e-10 2.30916e-07 -9.6722e-06)
(4.33821e-10 2.30773e-07 -9.67215e-06)
(3.15038e-10 2.3119e-07 -9.6727e-06)
(3.11653e-10 2.3142e-07 -9.67222e-06)
(-7.17875e-11 2.30859e-07 -9.67215e-06)
(-1.65743e-12 2.30527e-07 -9.67267e-06)
(1.41456e-10 2.30971e-07 -9.67219e-06)
(-2.11234e-10 2.30837e-07 -9.67221e-06)
(-3.77498e-10 2.29936e-07 -9.67236e-06)
(-4.49101e-10 2.32501e-07 -9.67281e-06)
(-4.69551e-10 2.30969e-07 -9.67278e-06)
(-4.94729e-10 2.30961e-07 -9.67279e-06)
(-7.72764e-10 2.30813e-07 -9.67223e-06)
(-1.26429e-09 2.30753e-07 -9.67228e-06)
(-1.74944e-09 2.31065e-07 -9.67227e-06)
(-2.42619e-09 2.31532e-07 -9.67226e-06)
(-6.27221e-09 2.30815e-07 -9.67141e-06)
(-3.32879e-08 2.29357e-07 -9.6702e-06)
(-2.18343e-07 2.17521e-07 -9.74448e-06)
(-1.51201e-06 1.85449e-07 -1.03508e-05)
(-1.31697e-05 1.90152e-07 -6.22485e-06)
(1.31942e-05 1.16522e-07 -6.21787e-06)
(1.51803e-06 1.13542e-07 -1.03511e-05)
(2.2112e-07 1.34082e-07 -9.74343e-06)
(3.36999e-08 1.4151e-07 -9.6682e-06)
(6.21561e-09 1.42648e-07 -9.67073e-06)
(2.68125e-09 1.42652e-07 -9.67118e-06)
(1.68607e-09 1.42865e-07 -9.67116e-06)
(1.23121e-09 1.42658e-07 -9.67118e-06)
(9.25933e-10 1.42742e-07 -9.67116e-06)
(7.31023e-10 1.42935e-07 -9.67107e-06)
(4.25175e-10 1.42628e-07 -9.67108e-06)
(3.64087e-10 1.4236e-07 -9.6712e-06)
(3.3219e-10 1.43107e-07 -9.67093e-06)
(-2.97407e-11 1.42841e-07 -9.671e-06)
(7.50138e-12 1.43217e-07 -9.67146e-06)
(7.83896e-11 1.42946e-07 -9.67092e-06)
(-3.41149e-10 1.42901e-07 -9.67097e-06)
(-3.04867e-10 1.42804e-07 -9.67153e-06)
(-2.33347e-10 1.43773e-07 -9.67143e-06)
(-6.03743e-10 1.4351e-07 -9.67147e-06)
(-5.91627e-10 1.43374e-07 -9.67157e-06)
(-6.98692e-10 1.42477e-07 -9.67124e-06)
(-1.23038e-09 1.42771e-07 -9.6711e-06)
(-1.70144e-09 1.42861e-07 -9.67107e-06)
(-2.45924e-09 1.43096e-07 -9.67099e-06)
(-6.51738e-09 1.42414e-07 -9.67032e-06)
(-3.40757e-08 1.41406e-07 -9.66904e-06)
(-2.20938e-07 1.33197e-07 -9.74341e-06)
(-1.51782e-06 1.13455e-07 -1.03511e-05)
(-1.31946e-05 1.1675e-07 -6.21753e-06)
(1.32088e-05 6.94644e-08 -6.21363e-06)
(1.52133e-06 6.68418e-08 -1.03513e-05)
(2.22843e-07 7.92792e-08 -9.7428e-06)
(3.43065e-08 8.40223e-08 -9.66739e-06)
(6.27435e-09 8.51318e-08 -9.66986e-06)
(2.60743e-09 8.44483e-08 -9.67065e-06)
(1.69329e-09 8.48273e-08 -9.67045e-06)
(1.20877e-09 8.47332e-08 -9.67047e-06)
(9.22071e-10 8.48079e-08 -9.67045e-06)
(7.00991e-10 8.48936e-08 -9.67027e-06)
(3.29458e-10 8.44618e-08 -9.67056e-06)
(4.14566e-10 8.50207e-08 -9.67071e-06)
(4.27864e-10 8.50307e-08 -9.6702e-06)
(-5.63562e-11 8.48647e-08 -9.6703e-06)
(1.53434e-11 8.43524e-08 -9.67072e-06)
(1.01301e-10 8.48235e-08 -9.67008e-06)
(-2.43421e-10 8.49284e-08 -9.67012e-06)
(-2.62771e-10 8.57055e-08 -9.67055e-06)
(-3.19004e-10 8.54119e-08 -9.67031e-06)
(-5.10424e-10 8.46004e-08 -9.6707e-06)
(-6.45573e-10 8.60523e-08 -9.6704e-06)
(-8.28553e-10 8.39922e-08 -9.67049e-06)
(-1.18169e-09 8.48543e-08 -9.67031e-06)
(-1.68001e-09 8.47663e-08 -9.67037e-06)
(-2.5167e-09 8.49279e-08 -9.67027e-06)
(-6.60623e-09 8.39287e-08 -9.66952e-06)
(-3.46525e-08 8.51148e-08 -9.66807e-06)
(-2.22737e-07 7.92556e-08 -9.74311e-06)
(-1.52111e-06 6.67365e-08 -1.03513e-05)
(-1.32087e-05 6.89494e-08 -6.21328e-06)
(1.32167e-05 3.56363e-08 -6.21123e-06)
(1.52323e-06 3.49471e-08 -1.03514e-05)
(2.23875e-07 4.16041e-08 -9.74246e-06)
(3.46195e-08 4.4158e-08 -9.66687e-06)
(6.24357e-09 4.37945e-08 -9.66977e-06)
(2.6535e-09 4.38274e-08 -9.67021e-06)
(1.74081e-09 4.46508e-08 -9.67005e-06)
(1.19673e-09 4.46181e-08 -9.67007e-06)
(8.98646e-10 4.46759e-08 -9.67006e-06)
(6.3574e-10 4.46311e-08 -9.67001e-06)
(4.61523e-10 4.38765e-08 -9.67013e-06)
(4.86027e-10 4.5555e-08 -9.67004e-06)
(3.14947e-10 4.48393e-08 -9.66976e-06)
(-1.76279e-10 4.47145e-08 -9.6699e-06)
(-1.11256e-11 4.47063e-08 -9.67053e-06)
(2.0244e-10 4.44607e-08 -9.66992e-06)
(-1.63904e-10 4.47278e-08 -9.66982e-06)
(-2.15966e-10 4.50937e-08 -9.67018e-06)
(-4.43549e-10 4.49459e-08 -9.66971e-06)
(-4.66841e-10 4.49784e-08 -9.67043e-06)
(-6.84159e-10 4.52759e-08 -9.66991e-06)
(-8.96941e-10 4.45437e-08 -9.6705e-06)
(-1.07885e-09 4.46641e-08 -9.66981e-06)
(-1.67306e-09 4.44752e-08 -9.67007e-06)
(-2.63111e-09 4.47017e-08 -9.66988e-06)
(-6.51806e-09 4.45061e-08 -9.66948e-06)
(-3.47045e-08 4.54858e-08 -9.66734e-06)
(-2.23931e-07 4.24453e-08 -9.74255e-06)
(-1.52308e-06 3.47228e-08 -1.03515e-05)
(-1.32167e-05 3.61873e-08 -6.21093e-06)
(1.32201e-05 1.13857e-08 -6.21017e-06)
(1.52421e-06 1.08275e-08 -1.03515e-05)
(2.24337e-07 1.29033e-08 -9.74233e-06)
(3.45992e-08 1.36196e-08 -9.66682e-06)
(6.17854e-09 1.32276e-08 -9.66972e-06)
(2.8079e-09 1.38755e-08 -9.67035e-06)
(1.85634e-09 1.38665e-08 -9.66988e-06)
(1.19321e-09 1.38695e-08 -9.6699e-06)
(8.83029e-10 1.38934e-08 -9.66989e-06)
(5.13416e-10 1.38693e-08 -9.66992e-06)
(5.15874e-10 1.39028e-08 -9.67029e-06)
(6.10327e-10 1.41685e-08 -9.66999e-06)
(2.74214e-10 1.38762e-08 -9.66948e-06)
(-9.50061e-11 1.39315e-08 -9.66974e-06)
(-4.6666e-11 1.44425e-08 -9.6702e-06)
(1.13978e-10 1.34986e-08 -9.67004e-06)
(-1.07556e-10 1.38951e-08 -9.6696e-06)
(-2.07784e-10 1.40159e-08 -9.66981e-06)
(-3.42786e-10 1.39563e-08 -9.66966e-06)
(-4.46134e-10 1.48592e-08 -9.6699e-06)
(-7.13823e-10 1.4119e-08 -9.66968e-06)
(-9.26366e-10 1.43633e-08 -9.67024e-06)
(-1.17058e-09 1.38274e-08 -9.66977e-06)
(-1.65134e-09 1.34717e-08 -9.67009e-06)
(-2.52262e-09 1.38766e-08 -9.6697e-06)
(-6.48742e-09 1.43585e-08 -9.66914e-06)
(-3.48808e-08 1.41148e-08 -9.66708e-06)
(-2.24549e-07 1.33205e-08 -9.74246e-06)
(-1.52398e-06 1.02999e-08 -1.03518e-05)
(-1.32202e-05 1.12326e-08 -6.20994e-06)
(1.32204e-05 -1.03554e-08 -6.20998e-06)
(1.52403e-06 -1.08965e-08 -1.03515e-05)
(2.24322e-07 -1.30207e-08 -9.74231e-06)
(3.46226e-08 -1.39199e-08 -9.66688e-06)
(6.31925e-09 -1.30741e-08 -9.66965e-06)
(2.78432e-09 -1.31315e-08 -9.67005e-06)
(1.74809e-09 -1.40067e-08 -9.66988e-06)
(1.19461e-09 -1.39678e-08 -9.66989e-06)
(8.79998e-10 -1.39699e-08 -9.6699e-06)
(6.17222e-10 -1.39736e-08 -9.66994e-06)
(5.0648e-10 -1.31576e-08 -9.67e-06)
(4.7564e-10 -1.41822e-08 -9.67002e-06)
(2.79071e-10 -1.4224e-08 -9.66969e-06)
(-6.28351e-11 -1.39366e-08 -9.66974e-06)
(-9.91748e-11 -1.43195e-08 -9.6702e-06)
(9.12541e-11 -1.47538e-08 -9.67003e-06)
(-5.25239e-11 -1.40502e-08 -9.66973e-06)
(-1.78166e-10 -1.40957e-08 -9.66981e-06)
(-2.89245e-10 -1.39286e-08 -9.66968e-06)
(-4.47209e-10 -1.3537e-08 -9.66995e-06)
(-7.64207e-10 -1.39165e-08 -9.66967e-06)
(-9.38125e-10 -1.43838e-08 -9.67024e-06)
(-1.21171e-09 -1.39947e-08 -9.66983e-06)
(-1.64707e-09 -1.48105e-08 -9.67006e-06)
(-2.46477e-09 -1.40356e-08 -9.66971e-06)
(-6.50622e-09 -1.44684e-08 -9.66902e-06)
(-3.48821e-08 -1.41555e-08 -9.66708e-06)
(-2.24742e-07 -1.27766e-08 -9.74226e-06)
(-1.52406e-06 -1.19777e-08 -1.03516e-05)
(-1.32199e-05 -1.12787e-08 -6.20998e-06)
(1.3217e-05 -3.61558e-08 -6.21138e-06)
(1.52313e-06 -3.5053e-08 -1.03515e-05)
(2.23838e-07 -4.17724e-08 -9.74246e-06)
(3.46923e-08 -4.46404e-08 -9.66712e-06)
(6.38808e-09 -4.37688e-08 -9.6695e-06)
(2.60009e-09 -4.43445e-08 -9.67026e-06)
(1.69433e-09 -4.47927e-08 -9.67007e-06)
(1.20489e-09 -4.47318e-08 -9.67005e-06)
(8.93977e-10 -4.47216e-08 -9.67008e-06)
(6.67462e-10 -4.47148e-08 -9.67006e-06)
(4.36001e-10 -4.43913e-08 -9.67022e-06)
(3.83836e-10 -4.55444e-08 -9.67011e-06)
(3.34244e-10 -4.52212e-08 -9.67015e-06)
(-9.85263e-11 -4.46739e-08 -9.66987e-06)
(-1.95658e-10 -4.44616e-08 -9.67047e-06)
(1.54834e-10 -4.46033e-08 -9.6704e-06)
(1.98357e-11 -4.48074e-08 -9.66996e-06)
(-1.46543e-10 -4.51889e-08 -9.67018e-06)
(-2.46794e-10 -4.47992e-08 -9.66969e-06)
(-4.67855e-10 -4.45889e-08 -9.66995e-06)
(-8.68939e-10 -4.48302e-08 -9.66984e-06)
(-9.37784e-10 -4.45607e-08 -9.67051e-06)
(-1.23329e-09 -4.47041e-08 -9.67002e-06)
(-1.65979e-09 -4.47192e-08 -9.67054e-06)
(-2.45841e-09 -4.47871e-08 -9.66992e-06)
(-6.52155e-09 -4.47321e-08 -9.66945e-06)
(-3.46603e-08 -4.54429e-08 -9.66729e-06)
(-2.24512e-07 -4.14623e-08 -9.74226e-06)
(-1.52332e-06 -3.49609e-08 -1.03516e-05)
(-1.32159e-05 -3.61949e-08 -6.21103e-06)
(1.32089e-05 -6.97765e-08 -6.21343e-06)
(1.52128e-06 -6.69217e-08 -1.03514e-05)
(2.22768e-07 -7.95449e-08 -9.7429e-06)
(3.44077e-08 -8.4934e-08 -9.66762e-06)
(6.42238e-09 -8.51601e-08 -9.6697e-06)
(2.55931e-09 -8.47287e-08 -9.67047e-06)
(1.67507e-09 -8.49186e-08 -9.67049e-06)
(1.22037e-09 -8.48504e-08 -9.67046e-06)
(9.32438e-10 -8.48189e-08 -9.67047e-06)
(6.93077e-10 -8.4878e-08 -9.67026e-06)
(2.79918e-10 -8.47431e-08 -9.67043e-06)
(2.92828e-10 -8.49426e-08 -9.67079e-06)
(4.62744e-10 -8.57679e-08 -9.67054e-06)
(1.01896e-10 -8.4877e-08 -9.67014e-06)
(-5.9027e-11 -8.38597e-08 -9.67046e-06)
(1.45566e-11 -8.3941e-08 -9.67023e-06)
(-1.83123e-10 -8.4966e-08 -9.67034e-06)
(-1.4206e-10 -8.58113e-08 -9.67056e-06)
(-1.81715e-10 -8.5118e-08 -9.67007e-06)
(-4.75949e-10 -8.48724e-08 -9.67029e-06)
(-7.53017e-10 -8.51491e-08 -9.67025e-06)
(-9.15753e-10 -8.40131e-08 -9.67048e-06)
(-1.24378e-09 -8.47835e-08 -9.6704e-06)
(-1.66864e-09 -8.39855e-08 -9.67061e-06)
(-2.46734e-09 -8.48743e-08 -9.67035e-06)
(-6.58915e-09 -8.41129e-08 -9.66955e-06)
(-3.44906e-08 -8.50873e-08 -9.66786e-06)
(-2.23119e-07 -7.91811e-08 -9.74238e-06)
(-1.52142e-06 -6.57066e-08 -1.03513e-05)
(-1.32082e-05 -6.89259e-08 -6.21332e-06)
(1.31942e-05 -1.16699e-07 -6.21778e-06)
(1.518e-06 -1.13545e-07 -1.03512e-05)
(2.20962e-07 -1.34514e-07 -9.74376e-06)
(3.38393e-08 -1.41572e-07 -9.66868e-06)
(6.43274e-09 -1.42582e-07 -9.67065e-06)
(2.64854e-09 -1.42815e-07 -9.67112e-06)
(1.68423e-09 -1.4285e-07 -9.67123e-06)
(1.24131e-09 -1.42747e-07 -9.6712e-06)
(9.69082e-10 -1.42709e-07 -9.67117e-06)
(6.98092e-10 -1.42877e-07 -9.67085e-06)
(3.38547e-10 -1.42801e-07 -9.67107e-06)
(1.61711e-10 -1.42139e-07 -9.67119e-06)
(3.53128e-10 -1.42839e-07 -9.6715e-06)
(2.7795e-10 -1.42866e-07 -9.67096e-06)
(2.15956e-11 -1.42306e-07 -9.67125e-06)
(-5.20252e-11 -1.42479e-07 -9.67095e-06)
(-3.5855e-10 -1.42986e-07 -9.67107e-06)
(-1.6024e-10 -1.42904e-07 -9.67155e-06)
(-6.28034e-11 -1.43088e-07 -9.67099e-06)
(-4.76586e-10 -1.42888e-07 -9.67102e-06)
(-7.02477e-10 -1.43406e-07 -9.67108e-06)
(-8.78463e-10 -1.42535e-07 -9.67122e-06)
(-1.24444e-09 -1.4271e-07 -9.67111e-06)
(-1.68386e-09 -1.42326e-07 -9.67138e-06)
(-2.48585e-09 -1.42823e-07 -9.67107e-06)
(-6.51802e-09 -1.42551e-07 -9.67038e-06)
(-3.39905e-08 -1.41296e-07 -9.6689e-06)
(-2.21132e-07 -1.33979e-07 -9.74316e-06)
(-1.51797e-06 -1.12924e-07 -1.03514e-05)
(-1.31944e-05 -1.16728e-07 -6.21752e-06)
(1.31692e-05 -1.89017e-07 -6.22484e-06)
(1.51193e-06 -1.8548e-07 -1.03506e-05)
(2.18459e-07 -2.18686e-07 -9.74468e-06)
(3.32518e-08 -2.28233e-07 -9.66955e-06)
(6.17107e-09 -2.29816e-07 -9.67152e-06)
(2.53652e-09 -2.30953e-07 -9.67227e-06)
(1.71509e-09 -2.30847e-07 -9.67241e-06)
(1.26775e-09 -2.30681e-07 -9.67236e-06)
(9.99872e-10 -2.30642e-07 -9.67229e-06)
(6.84742e-10 -2.30862e-07 -9.67191e-06)
(3.32533e-10 -2.30904e-07 -9.6722e-06)
(2.5804e-10 -2.30721e-07 -9.67243e-06)
(3.10953e-10 -2.30042e-07 -9.67233e-06)
(2.0049e-10 -2.30822e-07 -9.67219e-06)
(4.16362e-11 -2.30525e-07 -9.67226e-06)
(-8.78487e-11 -2.30697e-07 -9.67215e-06)
(-2.51615e-10 -2.31145e-07 -9.67232e-06)
(-1.63232e-10 -2.30042e-07 -9.67239e-06)
(-1.70298e-10 -2.3101e-07 -9.67227e-06)
(-5.12777e-10 -2.30912e-07 -9.67218e-06)
(-6.91511e-10 -2.31945e-07 -9.67259e-06)
(-8.17558e-10 -2.30932e-07 -9.67218e-06)
(-1.23195e-09 -2.3069e-07 -9.67225e-06)
(-1.70711e-09 -2.30476e-07 -9.67235e-06)
(-2.51545e-09 -2.30882e-07 -9.6722e-06)
(-6.28638e-09 -2.30908e-07 -9.67149e-06)
(-3.32237e-08 -2.28827e-07 -9.66978e-06)
(-2.18444e-07 -2.17651e-07 -9.74424e-06)
(-1.5121e-06 -1.85144e-07 -1.03508e-05)
(-1.31697e-05 -1.90156e-07 -6.2248e-06)
(1.3126e-05 -3.04345e-07 -6.23701e-06)
(1.50204e-06 -2.99537e-07 -1.03493e-05)
(2.14654e-07 -3.48841e-07 -9.74613e-06)
(3.23716e-08 -3.64901e-07 -9.67129e-06)
(5.94757e-09 -3.67111e-07 -9.67328e-06)
(2.50502e-09 -3.67928e-07 -9.67393e-06)
(1.77048e-09 -3.67555e-07 -9.67405e-06)
(1.29438e-09 -3.67352e-07 -9.67397e-06)
(1.02014e-09 -3.67335e-07 -9.67386e-06)
(6.55491e-10 -3.67559e-07 -9.67345e-06)
(2.96243e-10 -3.67793e-07 -9.67385e-06)
(2.93956e-10 -3.67923e-07 -9.67395e-06)
(3.03006e-10 -3.67348e-07 -9.67405e-06)
(1.80091e-10 -3.67588e-07 -9.67382e-06)
(5.41787e-11 -3.67337e-07 -9.67384e-06)
(-1.2706e-10 -3.67431e-07 -9.67383e-06)
(-1.96614e-10 -3.68237e-07 -9.67419e-06)
(-1.38899e-10 -3.67229e-07 -9.67411e-06)
(-2.17982e-10 -3.67705e-07 -9.67396e-06)
(-6.03677e-10 -3.67659e-07 -9.6738e-06)
(-7.13155e-10 -3.6961e-07 -9.67443e-06)
(-7.13858e-10 -3.68077e-07 -9.67377e-06)
(-1.20152e-09 -3.67403e-07 -9.67388e-06)
(-1.74235e-09 -3.67259e-07 -9.6739e-06)
(-2.56345e-09 -3.67786e-07 -9.67384e-06)
(-6.15856e-09 -3.68077e-07 -9.67333e-06)
(-3.21985e-08 -3.65005e-07 -9.67143e-06)
(-2.14447e-07 -3.48693e-07 -9.74558e-06)
(-1.50235e-06 -2.9915e-07 -1.03497e-05)
(-1.31264e-05 -3.05145e-07 -6.23681e-06)
(1.30519e-05 -4.85903e-07 -6.25612e-06)
(1.48636e-06 -4.8214e-07 -1.03471e-05)
(2.09145e-07 -5.55183e-07 -9.74715e-06)
(3.08698e-08 -5.79281e-07 -9.67309e-06)
(5.70949e-09 -5.82143e-07 -9.6751e-06)
(2.52607e-09 -5.83006e-07 -9.67606e-06)
(1.85861e-09 -5.82128e-07 -9.67592e-06)
(1.30647e-09 -5.8196e-07 -9.67591e-06)
(1.01867e-09 -5.82018e-07 -9.67578e-06)
(6.09677e-10 -5.82214e-07 -9.67545e-06)
(2.53541e-10 -5.82723e-07 -9.67599e-06)
(3.11861e-10 -5.83121e-07 -9.67609e-06)
(3.07033e-10 -5.82406e-07 -9.6759e-06)
(1.86611e-10 -5.82381e-07 -9.67578e-06)
(8.18623e-11 -5.82022e-07 -9.6758e-06)
(-1.9532e-10 -5.82051e-07 -9.6758e-06)
(-1.71791e-10 -5.83525e-07 -9.67605e-06)
(-6.74268e-11 -5.82107e-07 -9.6759e-06)
(-2.41309e-10 -5.82335e-07 -9.67597e-06)
(-7.82961e-10 -5.82323e-07 -9.67576e-06)
(-7.59555e-10 -5.84057e-07 -9.67649e-06)
(-5.35639e-10 -5.83274e-07 -9.67594e-06)
(-1.15434e-09 -5.8204e-07 -9.67585e-06)
(-1.7964e-09 -5.81924e-07 -9.67584e-06)
(-2.63599e-09 -5.82795e-07 -9.67594e-06)
(-5.85323e-09 -5.83377e-07 -9.6752e-06)
(-3.07185e-08 -5.78874e-07 -9.67329e-06)
(-2.08994e-07 -5.5593e-07 -9.74704e-06)
(-1.48659e-06 -4.81666e-07 -1.03472e-05)
(-1.3052e-05 -4.86715e-07 -6.2563e-06)
(1.29275e-05 -7.73225e-07 -6.28752e-06)
(1.46197e-06 -7.76325e-07 -1.03427e-05)
(2.01549e-07 -8.84881e-07 -9.74906e-06)
(2.8987e-08 -9.17568e-07 -9.67587e-06)
(5.44005e-09 -9.21045e-07 -9.67782e-06)
(2.59339e-09 -9.22281e-07 -9.67922e-06)
(1.98228e-09 -9.20678e-07 -9.67849e-06)
(1.3017e-09 -9.20458e-07 -9.67864e-06)
(9.86662e-10 -9.20658e-07 -9.67858e-06)
(5.43092e-10 -9.2063e-07 -9.67852e-06)
(2.22177e-10 -9.21695e-07 -9.67912e-06)
(3.26922e-10 -9.22403e-07 -9.67937e-06)
(3.02897e-10 -9.21376e-07 -9.67879e-06)
(2.05781e-10 -9.21162e-07 -9.67857e-06)
(1.33161e-10 -9.20582e-07 -9.67856e-06)
(-3.17146e-10 -9.20529e-07 -9.67854e-06)
(-1.61799e-10 -9.21224e-07 -9.67888e-06)
(8.41708e-11 -9.20718e-07 -9.67863e-06)
(-2.49543e-10 -9.20791e-07 -9.67876e-06)
(-8.04854e-10 -9.20845e-07 -9.67852e-06)
(-8.18626e-10 -9.21018e-07 -9.67916e-06)
(-5.34321e-10 -9.22643e-07 -9.67929e-06)
(-1.09664e-09 -9.2054e-07 -9.67861e-06)
(-1.87243e-09 -9.20445e-07 -9.6786e-06)
(-2.76134e-09 -9.21922e-07 -9.67912e-06)
(-5.62123e-09 -9.21055e-07 -9.67797e-06)
(-2.87883e-08 -9.17905e-07 -9.67611e-06)
(-2.01354e-07 -8.84943e-07 -9.74902e-06)
(-1.46216e-06 -7.75843e-07 -1.03426e-05)
(-1.29271e-05 -7.74338e-07 -6.28811e-06)
(1.27265e-05 -1.22858e-06 -6.3429e-06)
(1.42628e-06 -1.25154e-06 -1.03403e-05)
(1.91278e-07 -1.40774e-06 -9.75736e-06)
(2.66302e-08 -1.45196e-06 -9.68537e-06)
(5.13369e-09 -1.45595e-06 -9.68711e-06)
(2.67452e-09 -1.45791e-06 -9.6886e-06)
(2.12446e-09 -1.45505e-06 -9.68795e-06)
(1.33208e-09 -1.4549e-06 -9.68792e-06)
(9.67005e-10 -1.45534e-06 -9.68812e-06)
(4.42845e-10 -1.45482e-06 -9.6879e-06)
(1.60928e-10 -1.45675e-06 -9.68817e-06)
(3.47896e-10 -1.45792e-06 -9.68861e-06)
(2.87942e-10 -1.45646e-06 -9.68842e-06)
(2.26576e-10 -1.45602e-06 -9.68798e-06)
(2.0297e-10 -1.45511e-06 -9.68778e-06)
(-2.08033e-10 -1.45497e-06 -9.68775e-06)
(-1.4394e-10 -1.45506e-06 -9.68802e-06)
(5.23113e-11 -1.45516e-06 -9.68788e-06)
(-2.4862e-10 -1.45503e-06 -9.68778e-06)
(-6.92968e-10 -1.45532e-06 -9.68781e-06)
(-8.95327e-10 -1.45573e-06 -9.68863e-06)
(-7.06024e-10 -1.45844e-06 -9.68881e-06)
(-1.02524e-09 -1.45494e-06 -9.68784e-06)
(-1.96509e-09 -1.45488e-06 -9.68788e-06)
(-2.68855e-09 -1.4573e-06 -9.68846e-06)
(-5.41389e-09 -1.4548e-06 -9.68678e-06)
(-2.6577e-08 -1.45083e-06 -9.68521e-06)
(-1.91036e-07 -1.40738e-06 -9.75707e-06)
(-1.42651e-06 -1.25098e-06 -1.034e-05)
(-1.27256e-05 -1.23015e-06 -6.34305e-06)
(1.24223e-05 -1.94958e-06 -6.45316e-06)
(1.37827e-06 -2.01643e-06 -1.03624e-05)
(1.77909e-07 -2.23467e-06 -9.79658e-06)
(2.36744e-08 -2.29406e-06 -9.72659e-06)
(4.80181e-09 -2.29824e-06 -9.72807e-06)
(2.82229e-09 -2.29907e-06 -9.72999e-06)
(2.33575e-09 -2.29641e-06 -9.72892e-06)
(1.38115e-09 -2.29663e-06 -9.72901e-06)
(9.62352e-10 -2.29753e-06 -9.72969e-06)
(2.41426e-10 -2.29614e-06 -9.72859e-06)
(3.25722e-12 -2.29692e-06 -9.7288e-06)
(4.00181e-10 -2.29883e-06 -9.72857e-06)
(3.19373e-10 -2.29897e-06 -9.72898e-06)
(2.49809e-10 -2.2984e-06 -9.72935e-06)
(2.69148e-10 -2.29696e-06 -9.72871e-06)
(-1.28385e-10 -2.29674e-06 -9.72867e-06)
(-1.01844e-10 -2.29806e-06 -9.72979e-06)