/*--------------------------------*- C++ -*----------------------------------*\
| =========                 |                                                 |
| \\      /  F ield         | OpenFOAM: The Open Source CFD Toolbox           |
|  \\    /   O peration     | Version:  2106                                  |
|   \\  /    A nd           | Website:  www.openfoam.com                      |
|    \\/     M anipulation  |                                                 |
\*---------------------------------------------------------------------------*/
FoamFile
{
    version     2.0;
    format      ascii;
    arch        "LSB;label=32;scalar=64";
    class       volSymmTensorField;
    location    "401";
    object      epsilon;
}
// * * * * * * * * * * * * * * * * * * * * * * * * * * * * * * * * * * * * * //

dimensions      [0 0 0 0 0 0 0];

internalField   nonuniform List<symmTensor> 
9000
(
(-0.0855903 -0.000264066 0.0481745 -0.147132 0.0614181 -0.0253273)
(-0.0167761 0.000537591 0.00939241 -0.156483 0.0651361 -0.0697301)
(-0.00192992 0.000335724 0.00257241 -0.166394 0.0691636 -0.0594955)
(-0.000321508 5.06496e-05 0.000456095 -0.168007 0.0700526 -0.0573724)
(-5.57106e-05 -7.85904e-06 4.25484e-05 -0.16809 0.0700802 -0.0573806)
(-4.27862e-06 -1.96218e-06 1.8848e-05 -0.167911 0.0698703 -0.0576483)
(-1.64308e-06 1.9334e-08 2.48853e-05 -0.168036 0.0700346 -0.0575303)
(-7.75469e-08 -5.91099e-06 6.09178e-06 -0.167905 0.0698725 -0.0576456)
(-8.61058e-07 6.43928e-06 2.96131e-05 -0.167903 0.0698692 -0.0576523)
(-6.511e-06 6.68408e-06 -8.5022e-06 -0.168077 0.0700568 -0.0574335)
(2.31897e-06 -6.21319e-06 -5.03542e-05 -0.167961 0.0699412 -0.0575552)
(7.87619e-06 -5.59851e-07 3.76797e-05 -0.16778 0.0697506 -0.0577945)
(-4.39891e-06 5.42704e-06 5.78104e-05 -0.168067 0.0700455 -0.0574607)
(-4.26262e-06 8.14432e-07 -3.04676e-05 -0.168085 0.0700547 -0.057447)
(3.4977e-06 8.5449e-07 1.47773e-06 -0.167972 0.0699493 -0.0575408)
(-2.49294e-06 -1.18645e-06 3.0772e-05 -0.16808 0.070059 -0.0574337)
(-2.09963e-06 3.2723e-07 -3.54104e-05 -0.168083 0.0700534 -0.0574529)
(6.8937e-08 7.4327e-07 -2.24842e-06 -0.167976 0.0699511 -0.0575334)
(-2.08702e-06 -6.64321e-06 -2.33915e-05 -0.168069 0.0700503 -0.0574495)
(4.61128e-06 -6.37286e-06 -2.50345e-05 -0.167791 0.0697592 -0.0577613)
(2.72438e-06 5.77777e-06 4.07559e-05 -0.16789 0.0698626 -0.0576772)
(-5.67416e-06 6.50899e-06 8.06279e-06 -0.168075 0.0700496 -0.0574519)
(-3.57105e-06 -5.89729e-06 -3.08503e-05 -0.168078 0.0700583 -0.0574355)
(-1.11101e-07 -8.36113e-07 -2.60254e-05 -0.167914 0.0698754 -0.057637)
(-8.09459e-06 1.62492e-06 -2.48523e-05 -0.168065 0.070043 -0.057465)
(-5.42648e-05 1.8654e-06 -9.55552e-05 -0.167924 0.0698996 -0.0575773)
(-0.000314933 -4.57419e-05 -0.000443971 -0.167877 0.0699281 -0.057514)
(-0.00193054 -0.000335522 -0.00253409 -0.16639 0.0691525 -0.0595198)
(-0.0167791 -0.000536644 -0.00939048 -0.156482 0.0651355 -0.0697293)
(-0.0855901 0.000264025 -0.0481761 -0.147132 0.0614141 -0.0253307)
(-0.0724084 -1.17695e-05 0.0464916 -0.098083 0.0681968 -0.128969)
(-0.0164001 0.000682225 0.00803399 -0.103203 0.0717599 -0.174999)
(-0.00180294 0.000432579 0.00154894 -0.10924 0.0762458 -0.171315)
(-0.000206914 7.0913e-05 0.000233473 -0.110407 0.0774037 -0.170632)
(-2.77416e-05 -6.27075e-06 3.44163e-05 -0.11043 0.0774374 -0.170676)
(-4.81759e-06 -3.17569e-06 3.18368e-05 -0.110212 0.0773721 -0.170689)
(-2.34605e-06 6.04471e-07 2.49529e-05 -0.11038 0.0773844 -0.170699)
(-1.59064e-06 -1.70754e-06 -4.36307e-06 -0.110189 0.0773787 -0.170685)
(-7.26684e-07 2.01813e-06 3.23893e-05 -0.110191 0.0773712 -0.170691)
(-1.17533e-06 7.28486e-06 3.235e-05 -0.110406 0.077398 -0.170696)
(-4.96835e-07 3.37765e-06 -1.31351e-05 -0.110309 0.0775748 -0.170664)
(1.51685e-07 -5.86102e-06 2.52926e-06 -0.110089 0.0775391 -0.170654)
(-9.263e-07 -7.0151e-06 2.28061e-05 -0.110404 0.0773819 -0.170699)
(-7.06983e-07 6.22319e-06 1.39651e-06 -0.110382 0.0772463 -0.170679)
(2.12412e-07 3.76278e-06 -1.72373e-06 -0.110321 0.0775868 -0.170668)
(-2.53615e-07 -8.99452e-06 -1.66891e-06 -0.110409 0.077403 -0.170699)
(-1.70195e-07 5.11427e-06 4.69922e-08 -0.11038 0.0772447 -0.170681)
(-1.07922e-07 3.80042e-06 -2.4795e-06 -0.110325 0.0775877 -0.170663)
(-6.89084e-07 -2.10643e-06 -2.32208e-05 -0.110395 0.0773883 -0.170699)
(-7.8794e-07 -1.91553e-06 -2.62668e-05 -0.110095 0.0775585 -0.170653)
(-7.94983e-07 -4.15164e-06 6.18941e-06 -0.110175 0.0773592 -0.170679)
(-9.46298e-07 1.93168e-06 6.62367e-06 -0.110415 0.0773874 -0.170703)
(-1.2071e-06 -1.10135e-06 -3.61896e-05 -0.110406 0.0774022 -0.170699)
(-1.76682e-06 -1.75977e-06 -2.21879e-05 -0.110205 0.0773799 -0.170684)
(-5.48274e-06 3.40603e-06 -2.93877e-05 -0.110406 0.0773761 -0.170702)
(-2.81028e-05 9.83138e-06 -5.28399e-05 -0.110222 0.0774216 -0.170661)
(-0.000206636 -7.35467e-05 -0.000212842 -0.110296 0.077567 -0.170601)
(-0.00180308 -0.000437621 -0.00155041 -0.109204 0.0760855 -0.171313)
(-0.0164004 -0.000678875 -0.00803634 -0.103202 0.0717579 -0.174997)
(-0.0724076 1.17963e-05 -0.0464927 -0.0980873 0.0681872 -0.128968)
(-0.0763103 0.00117244 0.0467585 -0.0575609 0.0581796 -0.153385)
(-0.0165261 0.000871064 0.00787376 -0.0602211 0.0606596 -0.201961)
(-0.00180522 0.000519388 0.00137412 -0.0633702 0.0647302 -0.199923)
(-0.000187086 9.81731e-05 0.000172936 -0.0641066 0.0659073 -0.199622)
(-1.89079e-05 -8.02337e-07 5.7877e-05 -0.0641094 0.0659511 -0.199681)
(-4.99062e-06 -5.01907e-06 3.50568e-05 -0.0640047 0.0660619 -0.199639)
(-2.25085e-06 2.31244e-06 2.40528e-05 -0.0640813 0.0658924 -0.199687)
(-2.4021e-06 4.49133e-06 2.03191e-05 -0.0639989 0.0661614 -0.199657)
(-1.49433e-06 -2.89706e-06 5.97692e-06 -0.0640073 0.0661535 -0.199661)
(1.20841e-06 -2.69209e-06 7.67021e-06 -0.0640836 0.0659144 -0.199692)
(-7.5476e-07 3.30219e-06 1.67234e-05 -0.0640731 0.065891 -0.199676)
(-3.34537e-06 -2.65121e-06 3.06813e-06 -0.0639851 0.0661372 -0.199638)
(-2.09601e-07 -3.48e-06 -2.08628e-05 -0.0640634 0.0658058 -0.199647)
(1.4567e-06 3.74184e-06 7.42056e-08 -0.0640155 0.0659182 -0.199673)
(-8.34355e-07 5.45237e-07 1.18894e-05 -0.0640775 0.0659058 -0.199681)
(-1.41969e-08 -1.04659e-06 -1.657e-05 -0.0640855 0.0659212 -0.199693)
(1.1131e-06 3.92001e-07 9.75455e-07 -0.0640149 0.0659165 -0.199676)
(3.78189e-07 2.78013e-07 1.2587e-05 -0.0640793 0.0659048 -0.199681)
(-3.44122e-07 2.37725e-06 4.27294e-06 -0.0640772 0.0659047 -0.199691)
(-3.09649e-06 2.80006e-06 7.71631e-07 -0.0639885 0.0661411 -0.199643)
(-2.71904e-06 -5.5204e-06 -1.97661e-05 -0.0639893 0.0661553 -0.199648)
(1.06854e-06 -2.55877e-06 -2.15172e-05 -0.0640737 0.0658128 -0.199675)
(1.90951e-08 5.05518e-06 -1.1429e-05 -0.064083 0.0659205 -0.199694)
(-2.57224e-06 -3.98985e-06 -2.01857e-05 -0.0640171 0.0661594 -0.199659)
(-4.33791e-06 4.01131e-06 -3.00579e-05 -0.0640772 0.0658015 -0.199668)
(-2.06063e-05 4.50072e-06 -4.79517e-05 -0.0640293 0.0662 -0.199643)
(-0.000189224 -0.000102462 -0.000192356 -0.0640838 0.0658702 -0.199604)
(-0.00180427 -0.000519213 -0.00138057 -0.0632973 0.0647104 -0.199911)
(-0.016525 -0.000871609 -0.00786303 -0.0602193 0.0606578 -0.201957)
(-0.0763077 -0.00117217 -0.0467587 -0.0575706 0.0581674 -0.153385)
(-0.081884 0.00181523 0.0483812 -0.0351718 0.0409204 -0.154274)
(-0.0170853 0.000879844 0.00814611 -0.0372367 0.0422769 -0.205372)
(-0.0018671 0.000494792 0.00149361 -0.0391118 0.0456186 -0.203487)
(-0.000206967 0.00010041 0.000193353 -0.039635 0.0464973 -0.203197)
(-2.06657e-05 -6.83369e-07 4.29721e-05 -0.0396447 0.046544 -0.203262)
(-4.10112e-06 -6.61841e-06 3.55773e-05 -0.0395862 0.0464416 -0.203227)
(-2.37761e-06 1.38002e-06 3.25587e-05 -0.0396109 0.0464301 -0.203255)
(-2.27421e-06 1.55227e-06 1.72643e-05 -0.0396283 0.0465152 -0.203276)
(-1.08182e-06 4.89966e-07 1.04494e-05 -0.0396223 0.0464412 -0.203239)
(7.74603e-07 3.96105e-07 9.98422e-06 -0.0396204 0.046515 -0.203271)
(-1.24793e-06 -1.91304e-06 1.29377e-05 -0.0396162 0.0465028 -0.203266)
(-2.90851e-06 8.28955e-07 -6.09015e-06 -0.0396206 0.0464939 -0.203243)
(3.37232e-07 5.90915e-06 -4.48467e-06 -0.0395752 0.0465172 -0.203249)
(1.01194e-06 9.40329e-07 9.85122e-06 -0.0395962 0.0466814 -0.203275)
(-9.66941e-07 -3.44436e-06 -8.44087e-07 -0.0396135 0.0465162 -0.203269)
(1.46523e-07 4.12391e-06 -3.33759e-06 -0.039622 0.0465222 -0.203273)
(9.13319e-07 -6.63571e-07 4.70482e-07 -0.0395967 0.0466798 -0.203279)
(1.01837e-07 -4.2327e-06 7.79879e-07 -0.0396135 0.0465156 -0.203271)
(-6.14375e-07 -1.53455e-06 6.06785e-08 -0.0396171 0.0465063 -0.203248)
(-2.7381e-06 -7.60034e-07 -4.04888e-06 -0.0396219 0.0465039 -0.203269)
(-2.20888e-06 1.12308e-06 -2.45428e-05 -0.0396234 0.0465052 -0.203251)
(9.24029e-07 1.53943e-06 -1.78962e-05 -0.0395852 0.0465097 -0.203243)
(-4.30231e-07 -1.32593e-06 -5.24815e-06 -0.0396176 0.0465231 -0.203275)
(-2.45483e-06 -3.83984e-06 -2.94896e-05 -0.0396268 0.0464444 -0.203262)
(-3.47134e-06 4.82442e-06 -3.04955e-05 -0.0395793 0.0464323 -0.20322)
(-2.19096e-05 6.79232e-08 -3.68085e-05 -0.0396525 0.0465434 -0.203257)
(-0.000209037 -9.77658e-05 -0.000195105 -0.0396213 0.0464719 -0.203187)
(-0.00186696 -0.000492462 -0.00150092 -0.0390878 0.045761 -0.203461)
(-0.0170835 -0.000885245 -0.00814963 -0.0372354 0.0422755 -0.205369)
(-0.0818885 -0.00181447 -0.0483798 -0.0351628 0.0408439 -0.154258)
(-0.0860648 0.00177817 0.0503815 -0.0220622 0.0263921 -0.152267)
(-0.01777 0.000770334 0.00855955 -0.0235816 0.0267809 -0.205723)
(-0.00195057 0.000412299 0.00166463 -0.0249356 0.0293986 -0.203761)
(-0.000234806 8.62721e-05 0.000213663 -0.0252908 0.0299677 -0.20343)
(-2.59706e-05 5.45793e-06 4.20312e-05 -0.0252922 0.029958 -0.203489)
(-3.78267e-06 -4.62203e-06 2.41762e-05 -0.0252485 0.030103 -0.203519)
(-2.01382e-06 -2.77121e-06 3.14348e-05 -0.0252494 0.0299267 -0.203495)
(-2.03015e-06 2.25173e-06 1.60936e-05 -0.0252872 0.0300019 -0.203519)
(-5.97507e-07 -1.28448e-07 1.16594e-05 -0.0252607 0.0300031 -0.203508)
(9.32457e-08 -2.18507e-06 1.93386e-05 -0.0252898 0.029992 -0.203495)
(-1.41612e-06 -2.011e-06 1.05212e-05 -0.0252722 0.0299318 -0.203497)
(-2.12401e-06 4.05655e-06 2.2452e-06 -0.0252878 0.0299929 -0.203502)
(1.43169e-07 4.88261e-06 -3.53351e-06 -0.0252777 0.0300907 -0.203521)
(7.09254e-07 -1.28571e-06 1.62137e-06 -0.0253047 0.0300182 -0.203517)
(-8.75515e-07 -2.11394e-06 7.60616e-07 -0.0252822 0.0299959 -0.203511)
(-1.17966e-08 2.5667e-06 -4.00609e-06 -0.0252926 0.0299975 -0.203512)
(8.66237e-07 -3.45522e-07 -2.19209e-07 -0.0253051 0.0300171 -0.20352)
(-1.59399e-07 -3.43157e-06 2.07879e-06 -0.0252814 0.0299957 -0.203513)
(-9.38688e-07 -1.70012e-06 -1.85163e-06 -0.0252891 0.029991 -0.203484)
(-1.88162e-06 -1.16375e-07 -5.95741e-06 -0.0252862 0.029995 -0.203514)
(-1.51485e-06 2.75335e-06 -1.28019e-05 -0.0252866 0.0300006 -0.20351)
(-5.8767e-08 1.82059e-06 -1.55336e-05 -0.0252647 0.0300407 -0.203511)
(-1.04787e-06 -1.22894e-06 -2.36733e-05 -0.0252834 0.0299996 -0.203517)
(-1.62822e-06 -9.84529e-07 -2.93497e-05 -0.0252679 0.029998 -0.20351)
(-3.16155e-06 2.46814e-06 -2.03988e-05 -0.0252445 0.0300312 -0.203498)
(-2.69654e-05 -4.88344e-06 -3.74414e-05 -0.0253071 0.0300179 -0.203497)
(-0.000236384 -8.64559e-05 -0.000215819 -0.0252892 0.0299502 -0.203419)
(-0.00195066 -0.000409554 -0.0016691 -0.0249525 0.0294126 -0.203756)
(-0.0177671 -0.000771537 -0.00857211 -0.023581 0.0267793 -0.205722)
(-0.0860718 -0.00177612 -0.0503694 -0.0220305 0.0263822 -0.152257)
(-0.0887492 0.00139792 0.0521295 -0.0139535 0.0164721 -0.151242)
(-0.0183668 0.000608776 0.00896035 -0.0148853 0.0163826 -0.206538)
(-0.00203203 0.000319691 0.00181697 -0.0159425 0.0181897 -0.204476)
(-0.000259559 7.36775e-05 0.000236431 -0.0161957 0.0187184 -0.204174)
(-3.13341e-05 7.91484e-06 4.98557e-05 -0.0161845 0.0187593 -0.204243)
(-4.29136e-06 -2.43855e-06 3.02733e-05 -0.0162024 0.0188391 -0.20428)
(-1.65935e-06 -3.84223e-06 2.38522e-05 -0.0161575 0.0187655 -0.204259)
(-1.8125e-06 1.55851e-06 2.29967e-05 -0.0161977 0.0187535 -0.204266)
(-1.03621e-06 -1.61494e-06 1.16121e-05 -0.01619 0.0188247 -0.204278)
(-1.8475e-07 -2.87403e-06 3.50807e-06 -0.0161901 0.0187027 -0.204253)
(-9.17122e-07 -1.59054e-06 9.29225e-06 -0.0161695 0.0187431 -0.204255)
(-1.48474e-06 2.07457e-07 9.69729e-06 -0.0161921 0.0187007 -0.204228)
(8.16405e-08 4.79568e-06 -1.59149e-06 -0.01621 0.018712 -0.204253)
(3.29757e-07 8.18332e-07 2.77506e-06 -0.01621 0.0187672 -0.204264)
(-8.98217e-07 -2.53341e-06 9.63983e-07 -0.0161964 0.0187492 -0.20426)
(-5.55281e-08 1.86317e-06 -3.17776e-06 -0.0161942 0.0187027 -0.20425)
(5.57478e-07 8.48803e-07 -8.77681e-07 -0.0162101 0.0187658 -0.204265)
(-3.48426e-07 -4.20048e-06 6.22243e-07 -0.0161956 0.0187503 -0.204262)
(-7.83097e-07 -1.48556e-06 -2.95682e-06 -0.0161931 0.0187012 -0.20423)
(-1.55069e-06 1.3224e-06 -5.95863e-06 -0.0162023 0.0187485 -0.204261)
(-1.1904e-06 2.96083e-06 -1.99759e-05 -0.0162052 0.0187514 -0.204242)
(1.04624e-07 1.81423e-06 -1.43423e-05 -0.0161864 0.0187611 -0.204264)
(-1.50423e-06 -4.82237e-07 -6.7081e-06 -0.0161962 0.0187522 -0.204267)
(-1.88753e-06 6.79175e-07 -3.04581e-05 -0.0161872 0.0187771 -0.204246)
(-3.20262e-06 4.13101e-07 -2.80008e-05 -0.0161786 0.0187794 -0.204259)
(-3.2306e-05 -8.28992e-06 -3.78061e-05 -0.0162155 0.0187613 -0.204241)
(-0.00026094 -7.236e-05 -0.000247869 -0.0161913 0.01866 -0.204132)
(-0.00203162 -0.000316538 -0.00181931 -0.0159509 0.0181989 -0.204493)
(-0.0183637 -0.000607404 -0.00896309 -0.0148851 0.0163811 -0.206536)
(-0.0887483 -0.00139686 -0.0521164 -0.0139412 0.0165373 -0.151245)
(-0.0904061 0.000964432 0.0534131 -0.00882295 0.0102421 -0.150964)
(-0.018803 0.000447866 0.00929075 -0.00930079 0.00999411 -0.207532)
(-0.00209887 0.00023766 0.00193162 -0.0101023 0.0113155 -0.20547)
(-0.000279113 5.82458e-05 0.000277259 -0.0103149 0.0116699 -0.205149)
(-3.66423e-05 6.80509e-06 5.27122e-05 -0.0103224 0.0117637 -0.205216)
(-4.85826e-06 -9.82569e-07 2.11976e-05 -0.0103398 0.0117214 -0.205247)
(-1.28469e-06 -2.71439e-06 2.35594e-05 -0.0103041 0.0117607 -0.205232)
(-1.85462e-06 -1.35158e-06 2.25655e-05 -0.0103214 0.0117011 -0.205244)
(-1.00114e-06 -1.88645e-07 3.86685e-06 -0.010331 0.0117097 -0.205247)
(-2.37385e-07 -1.98187e-07 1.04447e-05 -0.0102996 0.0116997 -0.205241)
(-1.25809e-06 -1.72071e-06 7.89751e-06 -0.0103096 0.0117538 -0.205249)
(-7.20562e-07 -1.71702e-06 -4.39505e-06 -0.010305 0.0116977 -0.205231)
(6.53684e-07 2.83881e-06 8.03235e-06 -0.010306 0.0116656 -0.205226)
(-3.86685e-07 5.17201e-07 1.00161e-05 -0.0103284 0.0117101 -0.20524)
(-1.03364e-06 -9.14096e-07 -6.67067e-06 -0.0103211 0.0116984 -0.205239)
(2.65358e-07 1.40958e-06 -2.23847e-06 -0.0103029 0.0116987 -0.205235)
(-1.87915e-08 -3.14329e-07 6.23909e-06 -0.0103284 0.0117087 -0.205241)
(-6.42531e-07 -2.60088e-06 -8.88286e-06 -0.0103204 0.0116997 -0.20524)
(-1.78245e-07 -1.94402e-06 -3.45295e-06 -0.0103064 0.0116979 -0.205237)
(-1.00346e-06 -8.99572e-07 2.02959e-06 -0.0103169 0.0116558 -0.205229)
(-1.05785e-06 4.79234e-06 -1.16394e-05 -0.0103238 0.0116614 -0.205213)
(-5.9425e-07 2.92166e-06 -1.30659e-05 -0.0103216 0.0117674 -0.205253)
(-1.84444e-06 -1.37304e-06 -2.21344e-05 -0.0103206 0.0117016 -0.205246)
(-1.34933e-06 2.00057e-06 -3.02918e-05 -0.010313 0.0117102 -0.205238)
(-3.79516e-06 -1.37093e-06 -1.93916e-05 -0.0103087 0.0117294 -0.205238)
(-3.71449e-05 -8.76173e-06 -4.79827e-05 -0.0103249 0.0116627 -0.205209)
(-0.000279944 -5.40878e-05 -0.000280109 -0.0103031 0.0116616 -0.205114)
(-0.00209876 -0.000235646 -0.00192787 -0.0101077 0.0113192 -0.205465)
(-0.0188009 -0.000447452 -0.00929385 -0.00930171 0.00999207 -0.207528)
(-0.0904011 -0.000965599 -0.0534076 -0.00882984 0.0102536 -0.150969)
(-0.0914244 0.000612531 0.0542619 -0.00557033 0.00640131 -0.150942)
(-0.0190892 0.00031089 0.00955317 -0.00577106 0.00614976 -0.208326)
(-0.00214905 0.000172097 0.00201919 -0.00638095 0.00711542 -0.206273)
(-0.000293904 4.16916e-05 0.000289298 -0.00653944 0.0073263 -0.205945)
(-4.00981e-05 5.44727e-06 5.49696e-05 -0.00656093 0.00736421 -0.206011)
(-5.45156e-06 1.04462e-06 2.72363e-05 -0.00655981 0.00736665 -0.206044)
(-1.46014e-06 -1.98361e-06 2.17763e-05 -0.0065543 0.00741215 -0.206052)
(-1.51645e-06 -2.06914e-06 1.5894e-05 -0.00654781 0.00735286 -0.206045)
(-8.71816e-07 1.60645e-06 1.10832e-05 -0.00655368 0.00735956 -0.206045)
(-6.1668e-07 -2.3976e-07 9.71505e-06 -0.0065405 0.00740282 -0.20605)
(-1.25421e-06 -2.17967e-06 6.56145e-06 -0.00655165 0.00735772 -0.206044)
(-3.58135e-07 1.39255e-06 -4.09487e-06 -0.00653606 0.00736303 -0.206039)
(6.96812e-07 1.13715e-06 2.42545e-06 -0.00652949 0.00740652 -0.206041)
(-4.05426e-07 -2.3504e-06 9.71227e-06 -0.00655132 0.0073585 -0.206041)
(-9.2497e-07 9.05096e-07 1.25681e-07 -0.0065487 0.00735051 -0.206041)
(-3.72693e-08 1.11237e-06 -1.52003e-06 -0.00654176 0.00740105 -0.206047)
(-2.28052e-07 -1.87291e-06 -9.95843e-07 -0.00655133 0.00735705 -0.206042)
(-6.96286e-07 -1.18594e-06 -2.77671e-06 -0.00654737 0.00735223 -0.206041)
(-4.34021e-07 -4.53358e-07 -1.08876e-05 -0.00654112 0.00736257 -0.206041)
(-3.54389e-07 -1.28061e-06 -1.26433e-05 -0.00653164 0.00734996 -0.206034)
(-2.63055e-07 2.44185e-06 -3.22124e-06 -0.0065281 0.0073155 -0.206031)
(-9.21332e-07 2.2516e-06 -4.43052e-06 -0.00655882 0.00736524 -0.206045)
(-2.17079e-06 8.61323e-07 -1.5362e-05 -0.00654733 0.00735412 -0.206046)
(-1.69485e-06 3.64318e-06 -2.95971e-05 -0.00654773 0.00740977 -0.206052)
(-4.46417e-06 -1.75921e-06 -3.31122e-05 -0.00654369 0.00741784 -0.206043)
(-3.9937e-05 -9.16871e-06 -4.45248e-05 -0.00653574 0.00735411 -0.206012)
(-0.000294486 -4.01541e-05 -0.000282893 -0.00653439 0.00732996 -0.205936)
(-0.0021494 -0.000170761 -0.00202138 -0.00638523 0.0071162 -0.206265)
(-0.0190881 -0.000310348 -0.00955738 -0.00577317 0.00614885 -0.208302)
(-0.0914208 -0.000613835 -0.0542591 -0.00557457 0.00641021 -0.150947)
(-0.0920512 0.000369448 0.0547876 -0.00351694 0.00401617 -0.150968)
(-0.0192644 0.000204437 0.00973006 -0.00357586 0.00381633 -0.208851)
(-0.00218317 0.000121986 0.00208415 -0.00402923 0.00444245 -0.206801)
(-0.000304935 3.07225e-05 0.000303617 -0.00414066 0.00462455 -0.206484)
(-4.26621e-05 4.30219e-06 5.57694e-05 -0.00415823 0.00465306 -0.206566)
(-5.93577e-06 8.75356e-07 2.71968e-05 -0.00415687 0.00465407 -0.206584)
(-1.5886e-06 -1.3158e-06 2.07504e-05 -0.00416217 0.00465834 -0.206589)
(-1.27117e-06 -1.23746e-06 1.57475e-05 -0.00414935 0.00464634 -0.206588)
(-8.35465e-07 8.87903e-07 1.16392e-05 -0.00415264 0.00464966 -0.206586)
(-1.00334e-06 -1.73966e-07 9.57466e-06 -0.00415613 0.00465405 -0.206573)
(-9.6885e-07 -5.33952e-07 -1.40561e-06 -0.00415185 0.00465127 -0.206584)
(1.71866e-07 2.32011e-06 2.84587e-06 -0.00414052 0.00465257 -0.206579)
(1.73023e-07 -8.4825e-09 9.96588e-06 -0.00415276 0.00469888 -0.206588)
(-5.97039e-07 -3.35873e-06 2.3015e-06 -0.00415125 0.0046503 -0.206583)
(-5.37262e-07 3.0334e-07 1.57075e-07 -0.00415347 0.00464446 -0.206584)
(-1.99986e-07 1.11145e-06 -1.00781e-06 -0.00415568 0.00465281 -0.206573)
(-5.71071e-07 -1.14304e-06 -1.4656e-06 -0.00415086 0.00464903 -0.206586)
(-4.66351e-07 -9.88805e-07 -9.73166e-06 -0.00414993 0.0046456 -0.206584)
(-8.95441e-08 1.0229e-06 -4.15769e-06 -0.00413792 0.00461751 -0.206559)
(-4.19436e-07 1.75493e-06 -6.3849e-06 -0.00414788 0.00468845 -0.206586)
(-2.0729e-07 5.14688e-07 -8.82252e-06 -0.00413094 0.00469231 -0.206586)
(-9.13596e-07 -7.71806e-07 -3.48762e-06 -0.004156 0.00465519 -0.206585)
(-1.97668e-06 5.72773e-07 -1.54665e-05 -0.00414916 0.00464784 -0.206588)
(-1.65752e-06 3.63577e-06 -2.1731e-05 -0.00415939 0.00465663 -0.206588)
(-5.71531e-06 2.17244e-07 -2.64448e-05 -0.00416202 0.00470524 -0.206586)
(-4.27372e-05 -8.38065e-06 -6.13839e-05 -0.0041472 0.00469049 -0.206565)
(-0.000304673 -3.17082e-05 -0.000303849 -0.0041303 0.00458804 -0.206468)
(-0.00218335 -0.000120823 -0.00207844 -0.00403207 0.0044413 -0.206792)
(-0.0192643 -0.000203521 -0.00973211 -0.00357657 0.00381413 -0.208847)
(-0.0920497 -0.000370292 -0.0547868 -0.00351753 0.00402267 -0.150972)
(-0.0924363 0.000216431 0.0551006 -0.00222715 0.00251867 -0.150993)
(-0.0193672 0.000130012 0.00984547 -0.0022237 0.00237781 -0.209173)
(-0.00220494 8.44991e-05 0.00213078 -0.00254226 0.00279311 -0.207132)
(-0.0003129 2.20109e-05 0.000314226 -0.00262729 0.00292161 -0.206823)
(-4.45741e-05 3.24439e-06 5.82048e-05 -0.00264517 0.00294346 -0.206896)
(-6.34622e-06 9.90868e-07 2.74192e-05 -0.00264058 0.00294285 -0.206925)
(-1.71762e-06 -7.92031e-07 2.00787e-05 -0.00264324 0.00294601 -0.206928)
(-1.16149e-06 -8.29039e-07 1.51709e-05 -0.0026356 0.00293875 -0.20693)
(-8.00391e-07 2.28342e-07 1.16035e-05 -0.00263726 0.00294021 -0.206928)
(-8.89669e-07 -1.23196e-07 9.386e-06 -0.00264013 0.00294494 -0.206916)
(-7.9066e-07 1.20345e-06 5.22513e-06 -0.00263753 0.00294212 -0.206925)
(-5.74271e-08 1.39556e-06 3.38179e-06 -0.00263727 0.00298381 -0.206927)
(-1.99112e-07 -1.23353e-06 3.35406e-06 -0.00264653 0.00294999 -0.206924)
(-5.07296e-07 -3.00913e-06 1.44842e-06 -0.00263669 0.00294183 -0.206925)
(-1.83091e-07 8.1002e-09 -1.1368e-07 -0.00263269 0.00290244 -0.20692)
(-2.30863e-07 1.68762e-06 -6.12395e-07 -0.00263845 0.00294346 -0.206927)
(-7.63484e-07 -8.73891e-07 -1.64689e-06 -0.00263597 0.00294111 -0.206928)
(-3.79374e-07 1.2843e-06 -1.01797e-05 -0.00263919 0.00293826 -0.206926)
(2.19442e-07 8.42391e-09 -3.92289e-06 -0.00262149 0.00298414 -0.206924)
(-3.39117e-07 2.50879e-07 8.17153e-07 -0.00263816 0.00290714 -0.206918)
(-5.84637e-07 1.30377e-06 -8.11084e-06 -0.00264215 0.00298548 -0.206929)
(-9.89125e-07 -1.48222e-06 -9.99272e-06 -0.00264057 0.00294401 -0.206925)
(-1.62067e-06 3.93695e-07 -1.52581e-05 -0.00263557 0.00294018 -0.206929)
(-1.68139e-06 2.05448e-06 -2.07129e-05 -0.00264222 0.00294553 -0.206927)
(-6.45393e-06 -1.11918e-07 -2.67289e-05 -0.00265193 0.00295156 -0.206922)
(-4.4792e-05 -4.17009e-06 -6.389e-05 -0.00264372 0.00294256 -0.206902)
(-0.000312333 -2.31208e-05 -0.000314562 -0.00262001 0.00296078 -0.206814)
(-0.00220497 -8.53225e-05 -0.00212452 -0.00254519 0.00279062 -0.207125)
(-0.0193678 -0.000128721 -0.00984721 -0.00222284 0.00237575 -0.209172)
(-0.0924365 -0.0002168 -0.0551015 -0.00222327 0.00252343 -0.150996)
(-0.0926758 0.000125278 0.0552826 -0.00140822 0.0015323 -0.151006)
(-0.0194262 8.14182e-05 0.00991729 -0.00139501 0.0014783 -0.209367)
(-0.00221833 5.70934e-05 0.00216339 -0.00161394 0.0017472 -0.207337)
(-0.000318542 1.47248e-05 0.000321771 -0.00167762 0.00183665 -0.207032)
(-4.58334e-05 2.29053e-06 5.8206e-05 -0.001686 0.00181598 -0.207114)
(-6.60484e-06 1.66581e-06 2.79099e-05 -0.00168905 0.00185126 -0.207137)
(-1.91391e-06 -3.83016e-07 1.96495e-05 -0.00168975 0.00185276 -0.20714)
(-1.14328e-06 -5.4067e-07 1.4665e-05 -0.00168537 0.00184945 -0.207141)
(-7.69876e-07 3.52233e-08 1.10793e-05 -0.00168599 0.00185045 -0.207141)
(-7.60863e-07 -1.55698e-07 9.03138e-06 -0.00168666 0.00185303 -0.207141)
(-6.56851e-07 3.81113e-07 5.7451e-06 -0.00168757 0.00185135 -0.207136)
(-1.83251e-07 9.06946e-07 3.99803e-06 -0.00169803 0.00185537 -0.207135)
(-5.80238e-07 -2.78429e-07 3.31097e-06 -0.00169211 0.00185678 -0.207133)
(-4.69966e-07 -1.22726e-06 -6.04823e-06 -0.001686 0.00185205 -0.207137)
(3.19866e-07 1.05062e-07 -1.32371e-07 -0.00167419 0.00184905 -0.207132)
(-3.14365e-07 5.39048e-07 6.43082e-06 -0.00168601 0.0018539 -0.207138)
(-7.78432e-07 -1.48572e-06 -1.92079e-06 -0.001685 0.00185203 -0.207139)
(-3.568e-07 2.02554e-06 -3.46436e-06 -0.00168192 0.00181532 -0.207134)
(-1.3808e-07 1.41768e-06 -1.03484e-05 -0.00168806 0.00189569 -0.207139)
(-6.84411e-08 -2.04753e-06 -5.43417e-06 -0.00167756 0.00185227 -0.207129)
(-4.54819e-07 3.07473e-08 -1.0605e-06 -0.00169153 0.00182369 -0.207132)
(-1.15434e-06 5.80574e-08 -1.0316e-05 -0.00169042 0.00185146 -0.207135)
(-1.46502e-06 4.13198e-07 -1.5048e-05 -0.00168539 0.00185077 -0.20714)
(-1.74285e-06 1.08925e-06 -1.99671e-05 -0.00168957 0.00185298 -0.207138)
(-6.78415e-06 -3.67213e-07 -2.68265e-05 -0.00169485 0.00185629 -0.207133)
(-4.62925e-05 -3.05096e-06 -5.89308e-05 -0.00169202 0.00185077 -0.207112)
(-0.000318106 -1.67321e-05 -0.000322942 -0.00168391 0.00184125 -0.207021)
(-0.00221808 -5.75938e-05 -0.00216382 -0.00161904 0.00174422 -0.207331)
(-0.019427 -7.89162e-05 -0.00991918 -0.00139423 0.00147678 -0.209367)
(-0.0926733 -0.000124761 -0.055285 -0.00141257 0.00157362 -0.151015)
(-0.092822 7.18704e-05 0.0553824 -0.000895882 0.000965552 -0.151017)
(-0.0194596 4.82233e-05 0.00997045 -0.000890545 0.00090686 -0.209484)
(-0.0022265 3.7383e-05 0.00218546 -0.00104007 0.00107705 -0.207463)
(-0.000322356 1.09573e-05 0.000320789 -0.00108728 0.00113755 -0.207161)
(-4.6528e-05 1.48605e-06 5.88931e-05 -0.00108618 0.00114715 -0.207243)
(-6.79432e-06 4.07876e-07 3.47342e-05 -0.00109803 0.00114614 -0.207268)
(-2.17506e-06 -3.23993e-08 1.94519e-05 -0.00109673 0.0011475 -0.207271)
(-1.1402e-06 -3.07461e-07 1.43412e-05 -0.0010943 0.0011462 -0.207272)
(-7.50277e-07 1.36616e-07 1.0944e-05 -0.00109451 0.00114719 -0.207273)
(-7.51138e-07 -2.80188e-07 8.87242e-06 -0.00109516 0.00114976 -0.207272)
(-5.50404e-07 -8.22738e-07 5.97126e-06 -0.00109734 0.00114654 -0.207267)
(-1.39477e-07 7.32235e-07 4.39417e-06 -0.00109627 0.00111608 -0.207261)
(-5.90742e-07 7.95968e-07 3.17026e-06 -0.00109792 0.00115018 -0.207265)
(-4.87033e-07 1.40505e-07 2.1543e-07 -0.00109496 0.00114838 -0.207268)
(1.62195e-07 1.42796e-07 1.12548e-07 -0.00109631 0.00118227 -0.207267)
(-5.22975e-07 -3.87437e-07 1.10108e-07 -0.00109611 0.0011499 -0.207267)
(-5.74885e-07 -2.26802e-07 -9.00898e-06 -0.00109432 0.00114907 -0.207269)
(1.61702e-07 1.08377e-06 -3.11566e-06 -0.00108173 0.0011477 -0.207264)
(-4.48315e-07 1.01734e-06 3.11773e-06 -0.00110317 0.00115562 -0.207267)
(-5.37419e-07 -4.52138e-07 -1.20944e-05 -0.00109776 0.00118403 -0.207265)
(-1.42422e-07 -1.34071e-06 -7.64588e-06 -0.00108681 0.00115299 -0.207261)
(-9.58126e-07 -6.61892e-07 -3.88097e-06 -0.00110116 0.00114624 -0.207266)
(-1.50412e-06 5.97478e-07 -1.47479e-05 -0.00109424 0.00114767 -0.207271)
(-1.8433e-06 5.04615e-07 -1.96352e-05 -0.00109724 0.00114769 -0.207269)
(-7.2239e-06 -6.74814e-07 -2.70581e-05 -0.00109953 0.00114894 -0.207264)
(-4.74247e-05 -2.52017e-06 -6.66047e-05 -0.00110165 0.00114499 -0.207242)
(-0.00032163 -1.20293e-05 -0.000329011 -0.00108182 0.00110661 -0.207145)
(-0.00222562 -3.744e-05 -0.00217953 -0.00103699 0.00104055 -0.207453)
(-0.0194605 -4.64539e-05 -0.00996242 -0.000890347 0.000906528 -0.209484)
(-0.0928173 -7.07932e-05 -0.0553902 -0.000909019 0.000965183 -0.151028)
(-0.0929029 4.02469e-05 0.0554494 -0.000606642 0.000609869 -0.151035)
(-0.0194789 2.68382e-05 0.00998577 -0.000589463 0.000534539 -0.209553)
(-0.00223053 2.32188e-05 0.00219984 -0.000693584 0.000637891 -0.207539)
(-0.000324853 7.83814e-06 0.000331663 -0.000730138 0.000676748 -0.207238)
(-4.75486e-05 4.24295e-07 6.02015e-05 -0.0007414 0.000716103 -0.207316)
(-6.87159e-06 -3.32392e-07 2.80332e-05 -0.000741183 0.000680632 -0.207348)
(-2.09798e-06 4.18968e-07 1.94833e-05 -0.000736607 0.000682258 -0.207351)
(-1.15683e-06 -1.43862e-07 1.41501e-05 -0.000735302 0.000681708 -0.207352)
(-7.61674e-07 1.80181e-08 1.10348e-05 -0.000735498 0.000682708 -0.207352)
(-8.8892e-07 -6.16859e-07 8.81157e-06 -0.000737283 0.000684514 -0.207342)
(-4.29637e-07 2.31557e-07 -7.61175e-07 -0.000740639 0.000681118 -0.207348)
(1.47609e-07 8.8392e-07 4.77843e-06 -0.00072604 0.000684647 -0.20734)
(-7.06384e-07 -1.81605e-07 9.76341e-06 -0.000737009 0.000684501 -0.207346)
(-6.1878e-07 -1.05824e-06 8.90582e-08 -0.000735945 0.000683432 -0.207348)
(2.36486e-07 -1.00774e-07 3.64168e-07 -0.000738832 0.000649699 -0.207343)
(-3.88147e-07 8.97241e-07 2.93294e-07 -0.000738639 0.000683849 -0.207337)
(-5.46108e-07 1.32615e-06 -2.49584e-06 -0.000736303 0.000684527 -0.20734)
(-1.13375e-07 6.95945e-07 -2.78852e-06 -0.000732831 0.00071918 -0.207348)
(-3.71479e-07 -1.61704e-06 -3.43949e-06 -0.000741202 0.000688112 -0.207345)
(-4.89852e-07 9.93742e-07 -5.48995e-06 -0.000738991 0.000650963 -0.207342)
(-4.77194e-07 -8.03189e-07 -7.83882e-06 -0.000735739 0.000722349 -0.207344)
(-8.04184e-07 -1.64194e-06 -1.0736e-05 -0.0007345 0.000647334 -0.207344)
(-1.27718e-06 1.14881e-06 -1.45612e-05 -0.0007358 0.000683416 -0.207349)
(-2.0025e-06 1.61593e-07 -1.95991e-05 -0.000737892 0.000681758 -0.207349)
(-7.38933e-06 -1.2727e-06 -2.72835e-05 -0.000737961 0.000682644 -0.207345)
(-4.82037e-05 1.37617e-07 -6.71894e-05 -0.000734306 0.000646087 -0.207319)
(-0.000324196 -5.8628e-06 -0.000340194 -0.000719404 0.000713898 -0.207227)
(-0.00222969 -2.5011e-05 -0.00219416 -0.000680641 0.000636803 -0.207529)
(-0.019479 -2.7458e-05 -0.00998051 -0.000590492 0.000534163 -0.209551)
(-0.0929025 -3.97666e-05 -0.0554456 -0.000604223 0.000571788 -0.15104)
(-0.0929512 2.07289e-05 0.0554828 -0.000435591 0.000262982 -0.151039)
(-0.0194892 1.52936e-05 0.0100001 -0.000420107 0.000279723 -0.209594)
(-0.00223291 1.25096e-05 0.00220853 -0.000497819 0.00033504 -0.207583)
(-0.000326447 2.74061e-06 0.000335435 -0.000528021 0.000356339 -0.207274)
(-4.79491e-05 -6.0725e-07 5.91052e-05 -0.000539281 0.000324233 -0.207369)
(-6.75414e-06 1.39401e-06 2.84721e-05 -0.000529296 0.000324392 -0.207391)
(-2.18515e-06 1.20447e-06 1.96441e-05 -0.000532207 0.000359444 -0.207396)
(-1.26324e-06 -3.95772e-08 1.4042e-05 -0.000531477 0.000359169 -0.207398)
(-8.41487e-07 -1.36659e-07 1.07249e-05 -0.000531859 0.000360083 -0.207398)
(-6.55684e-07 -1.30292e-06 8.24868e-06 -0.000532682 0.000359572 -0.207397)
(-2.2457e-07 1.39194e-06 6.31324e-06 -0.000529193 0.000324985 -0.207391)
(-2.19863e-07 1.45615e-06 5.20406e-06 -0.000531391 0.000396199 -0.207389)
(-9.93459e-07 -1.20655e-06 2.96955e-06 -0.000533658 0.000361794 -0.207391)
(-4.89109e-07 -2.44664e-07 -6.77237e-06 -0.000531999 0.000360487 -0.207393)
(5.68078e-07 -4.22873e-07 -1.13636e-08 -0.000524324 0.000360352 -0.207387)
(-2.29168e-07 6.36398e-08 6.9678e-06 -0.000534937 0.000357868 -0.207393)
(-6.27609e-07 9.84241e-07 -1.9086e-06 -0.00053275 0.000360624 -0.207394)
(-4.19467e-07 3.69775e-07 -2.20852e-06 -0.000537672 0.000362531 -0.207394)
(-3.76312e-07 -1.75678e-07 -1.00207e-05 -0.000535917 0.00036187 -0.207383)
(-3.60915e-07 4.8858e-07 -5.30103e-06 -0.000523059 0.000361954 -0.207387)