/*--------------------------------*- C++ -*----------------------------------*\
| =========                 |                                                 |
| \\      /  F ield         | OpenFOAM: The Open Source CFD Toolbox           |
|  \\    /   O peration     | Version:  2106                                  |
|   \\  /    A nd           | Website:  www.openfoam.com                      |
|    \\/     M anipulation  |                                                 |
\*---------------------------------------------------------------------------*/
FoamFile
{
    version     2.0;
    format      ascii;
    arch        "LSB;label=32;scalar=64";
    class       volSymmTensorField;
    location    "401";
    object      sigma;
}
// * * * * * * * * * * * * * * * * * * * * * * * * * * * * * * * * * * * * * //

dimensions      [1 -1 -2 0 0 0 0];

internalField   nonuniform List<symmTensor> 
9000
(
(5.39399e+07 -136222 2.48514e+07 2.2193e+07 3.16833e+07 8.50274e+07)
(9.63443e+07 277323 4.84519e+06 2.42746e+07 3.36013e+07 6.90273e+07)
(1.10959e+08 173187 1.32701e+06 2.61179e+07 3.56789e+07 8.1263e+07)
(1.1276e+08 26128.3 235282 2.62577e+07 3.61375e+07 8.33298e+07)
(1.12977e+08 -4054.19 21949.1 2.62946e+07 3.61518e+07 8.34055e+07)
(1.12987e+08 -1012.21 9722.99 2.63702e+07 3.60435e+07 8.32505e+07)
(1.12986e+08 9.97371 12837.4 2.63031e+07 3.61283e+07 8.33091e+07)
(1.12995e+08 -3049.26 3142.52 2.63792e+07 3.60446e+07 8.32578e+07)
(1.12992e+08 3321.79 15276.3 2.63775e+07 3.60429e+07 8.32517e+07)
(1.13007e+08 3448.07 -4385.97 2.63053e+07 3.61397e+07 8.33823e+07)
(1.13013e+08 -3205.15 -25975.9 2.63669e+07 3.608e+07 8.33211e+07)
(1.12992e+08 -288.806 19437.6 2.64365e+07 3.59818e+07 8.31738e+07)
(1.13001e+08 2799.61 29822.2 2.63042e+07 3.61339e+07 8.33617e+07)
(1.12999e+08 420.135 -15717.1 2.6293e+07 3.61386e+07 8.33669e+07)
(1.13015e+08 440.8 762.306 2.6363e+07 3.60842e+07 8.33305e+07)
(1.13009e+08 -612.044 15874.1 2.63041e+07 3.61408e+07 8.33826e+07)
(1.13e+08 168.806 -18266.9 2.62933e+07 3.6138e+07 8.33631e+07)
(1.13014e+08 383.426 -1159.88 2.63616e+07 3.60852e+07 8.33347e+07)
(1.13008e+08 -3426.99 -12066.8 2.63084e+07 3.61364e+07 8.33727e+07)
(1.12999e+08 -3287.52 -12914.4 2.64396e+07 3.59862e+07 8.31995e+07)
(1.1299e+08 2980.54 21024.5 2.63802e+07 3.60395e+07 8.32349e+07)
(1.13e+08 3357.75 4159.29 2.63e+07 3.6136e+07 8.33661e+07)
(1.13008e+08 -3042.19 -15914.5 2.63046e+07 3.61405e+07 8.33812e+07)
(1.12995e+08 -431.32 -13425.5 2.6374e+07 3.60461e+07 8.32619e+07)
(1.12997e+08 838.237 -12820.4 2.63022e+07 3.61326e+07 8.33566e+07)
(1.12965e+08 962.292 -49293.3 2.63672e+07 3.60586e+07 8.32908e+07)
(1.12761e+08 -23596.5 -229028 2.63219e+07 3.60733e+07 8.32543e+07)
(1.10949e+08 -173083 -1.30724e+06 2.61102e+07 3.56732e+07 8.12408e+07)
(9.6342e+07 -276834 -4.8442e+06 2.42743e+07 3.3601e+07 6.9027e+07)
(5.39385e+07 136201 -2.48522e+07 2.21915e+07 3.16812e+07 8.50241e+07)
(4.17513e+07 -6071.47 2.39833e+07 2.85067e+07 3.51802e+07 1.2574e+07)
(7.28716e+07 351935 4.14444e+06 2.80933e+07 3.70183e+07 -8.94374e+06)
(8.60162e+07 223151 799042 3.05935e+07 3.93323e+07 -1.42873e+06)
(8.73496e+07 36581.4 120440 3.05016e+07 3.99297e+07 -566263)
(8.74929e+07 -3234.85 17754.1 3.05403e+07 3.99471e+07 -538346)
(8.76095e+07 -1638.22 16423.4 3.07576e+07 3.99134e+07 -439963)
(8.75304e+07 311.824 12872.3 3.05904e+07 3.99197e+07 -525447)
(8.7625e+07 -880.859 -2250.74 3.07832e+07 3.99168e+07 -424102)
(8.76224e+07 1041.08 16708.5 3.07795e+07 3.99129e+07 -430302)
(8.75214e+07 3757.99 16688.2 3.05679e+07 3.99268e+07 -533463)
(8.75808e+07 1742.4 -6775.91 3.06767e+07 4.0018e+07 -458179)
(8.76873e+07 -3023.48 1304.75 3.08966e+07 3.99996e+07 -346593)
(8.75206e+07 -3618.83 11764.8 3.05677e+07 3.99185e+07 -536179)
(8.75404e+07 3210.31 720.41 3.05988e+07 3.98485e+07 -506090)
(8.75743e+07 1941.08 -889.211 3.06639e+07 4.00242e+07 -466926)
(8.75193e+07 -4639.94 -860.93 3.05636e+07 3.99293e+07 -537679)
(8.75406e+07 2638.26 24.2415 3.05998e+07 3.98477e+07 -507424)
(8.75743e+07 1960.5 -1279.08 3.06619e+07 4.00246e+07 -464557)
(8.75249e+07 -1086.63 -11978.7 3.05765e+07 3.99217e+07 -532093)
(8.76836e+07 -988.149 -13550.1 3.08898e+07 4.00095e+07 -349492)
(8.7635e+07 -2141.68 3192.88 3.08003e+07 3.99067e+07 -411652)
(8.75138e+07 996.482 3416.9 3.05555e+07 3.99213e+07 -545171)
(8.75195e+07 -568.145 -18668.9 3.05656e+07 3.99289e+07 -536947)
(8.76179e+07 -907.798 -11445.9 3.07681e+07 3.99174e+07 -430700)
(8.75139e+07 1757.04 -15160 3.05621e+07 3.99155e+07 -542071)
(8.75953e+07 5071.64 -27258.2 3.07504e+07 3.99389e+07 -427648)
(8.74151e+07 -37940 -109797 3.06244e+07 4.00139e+07 -484794)
(8.60333e+07 -225753 -799798 3.06291e+07 3.92497e+07 -1.41048e+06)
(7.28729e+07 -350207 -4.14565e+06 2.80954e+07 3.70172e+07 -8.94118e+06)
(4.17504e+07 6085.28 -2.39838e+07 2.85032e+07 3.51752e+07 1.25729e+07)
(4.53346e+07 604816 2.4121e+07 5.50067e+07 3.00127e+07 5.57467e+06)
(8.00948e+07 449349 4.06178e+06 5.75541e+07 3.1292e+07 -1.5564e+07)
(9.39291e+07 267933 708856 6.217e+07 3.33919e+07 -8.27264e+06)
(9.53061e+07 50643.8 89211 6.23325e+07 3.39991e+07 -7.57508e+06)
(9.54419e+07 -413.896 29856.6 6.238e+07 3.40217e+07 -7.55634e+06)
(9.55226e+07 -2589.15 18084.5 6.25075e+07 3.40789e+07 -7.46122e+06)
(9.54683e+07 1192.9 12408 6.24123e+07 3.39914e+07 -7.54152e+06)
(9.55195e+07 2316.91 10481.9 6.2506e+07 3.41302e+07 -7.47503e+06)
(9.55146e+07 -1494.49 3083.27 6.24964e+07 3.41261e+07 -7.48244e+06)
(9.54681e+07 -1388.75 3956.77 6.24092e+07 3.40028e+07 -7.54622e+06)
(9.54783e+07 1703.48 8626.96 6.24258e+07 3.39907e+07 -7.5269e+06)
(9.55337e+07 -1367.66 1582.74 6.25279e+07 3.41177e+07 -7.45033e+06)
(9.54967e+07 -1795.2 -10762.4 6.24489e+07 3.39468e+07 -7.49362e+06)
(9.55085e+07 1930.28 38.2799 6.24845e+07 3.40048e+07 -7.49603e+06)
(9.5474e+07 281.268 6133.27 6.24192e+07 3.39983e+07 -7.53374e+06)
(9.54658e+07 -539.895 -8547.83 6.24064e+07 3.40063e+07 -7.54834e+06)
(9.5507e+07 202.219 503.201 6.24835e+07 3.40039e+07 -7.49906e+06)
(9.54742e+07 143.417 6493.17 6.24178e+07 3.39978e+07 -7.53426e+06)
(9.547e+07 1226.34 2204.25 6.24151e+07 3.39978e+07 -7.543e+06)
(9.55302e+07 1444.45 398.056 6.25225e+07 3.41197e+07 -7.45658e+06)
(9.5528e+07 -2847.77 -10196.6 6.25197e+07 3.4127e+07 -7.46134e+06)
(9.54806e+07 -1319.97 -11099.9 6.24268e+07 3.39504e+07 -7.52466e+06)
(9.54662e+07 2607.78 -5895.79 6.24082e+07 3.40059e+07 -7.54865e+06)
(9.55102e+07 -2058.21 -10413.1 6.24875e+07 3.41292e+07 -7.48497e+06)
(9.54765e+07 2069.28 -15505.7 6.24237e+07 3.39445e+07 -7.52277e+06)
(9.54944e+07 2321.76 -24736.5 6.24747e+07 3.41501e+07 -7.48326e+06)
(9.53228e+07 -52856.3 -99229.4 6.2362e+07 3.398e+07 -7.54806e+06)
(9.39692e+07 -267843 -712186 6.22472e+07 3.33817e+07 -8.22657e+06)
(8.00982e+07 -449631 -4.05624e+06 5.75579e+07 3.12911e+07 -1.55593e+07)
(4.53324e+07 -604681 -2.41211e+07 5.49982e+07 3.00064e+07 5.57089e+06)
(4.97624e+07 936409 2.49581e+07 7.38595e+07 2.11093e+07 1.24194e+07)
(8.85249e+07 453879 4.20227e+06 7.81295e+07 2.18091e+07 -8.60524e+06)
(1.03358e+08 255245 770498 8.41451e+07 2.35329e+07 -649973)
(1.04869e+08 51798 99743.6 8.45294e+07 2.39862e+07 153709)
(1.05016e+08 -352.524 22167.7 8.45757e+07 2.40103e+07 171717)
(1.05075e+08 -3414.19 18353 8.46561e+07 2.39575e+07 239743)
(1.05053e+08 711.901 16795.8 8.46203e+07 2.39516e+07 202521)
(1.05035e+08 800.76 8906 8.45935e+07 2.39955e+07 173494)
(1.05056e+08 252.755 5390.43 8.4617e+07 2.39573e+07 213146)
(1.05044e+08 204.336 5150.49 8.4605e+07 2.39954e+07 183809)
(1.05047e+08 -986.865 6674.07 8.46107e+07 2.39891e+07 190123)
(1.05053e+08 427.627 -3141.68 8.4616e+07 2.39845e+07 209456)
(1.05074e+08 3048.31 -2313.48 8.46589e+07 2.39965e+07 225561)
(1.05053e+08 485.081 5081.88 8.46267e+07 2.40812e+07 190747)
(1.05046e+08 -1776.82 -435.433 8.46117e+07 2.3996e+07 187761)
(1.05042e+08 2127.37 -1721.74 8.46021e+07 2.39991e+07 180477)
(1.05051e+08 -342.312 242.704 8.46245e+07 2.40804e+07 186728)
(1.05047e+08 -2183.49 402.311 8.46116e+07 2.39957e+07 186875)
(1.05055e+08 -791.616 31.3018 8.46181e+07 2.39909e+07 206770)
(1.05041e+08 -392.073 -2088.67 8.46027e+07 2.39896e+07 183047)
(1.05049e+08 579.357 -12660.7 8.46098e+07 2.39903e+07 200225)
(1.05073e+08 794.135 -9231.99 8.46522e+07 2.39926e+07 227039)
(1.05042e+08 -684 -2707.32 8.46051e+07 2.39996e+07 180177)
(1.05042e+08 -1980.83 -15212.6 8.46016e+07 2.39589e+07 188537)
(1.05082e+08 2488.74 -15731.5 8.46667e+07 2.39527e+07 250793)
(1.05014e+08 35.0391 -18988.2 8.45698e+07 2.401e+07 172235)
(1.04878e+08 -50433.7 -100647 8.45465e+07 2.39731e+07 169112)
(1.03381e+08 -254043 -774268 8.41805e+07 2.36064e+07 -613367)
(8.85286e+07 -456665 -4.20409e+06 7.8133e+07 2.18084e+07 -8.60103e+06)
(4.97691e+07 -936020 -2.49573e+07 7.38732e+07 2.10699e+07 1.24362e+07)
(5.26202e+07 917294 2.59899e+07 8.56367e+07 1.36147e+07 1.84691e+07)
(9.39583e+07 397386 4.41555e+06 9.09603e+07 1.38153e+07 -2.99965e+06)
(1.09652e+08 212690 858723 9.77944e+07 1.51656e+07 5.54491e+06)
(1.11312e+08 44504.6 110221 9.83868e+07 1.54592e+07 6.49134e+06)
(1.11488e+08 2815.54 21682.3 9.84542e+07 1.54542e+07 6.52893e+06)
(1.11516e+08 -2384.34 12471.6 9.84935e+07 1.5529e+07 6.5305e+06)
(1.11528e+08 -1429.57 16216.1 9.85041e+07 1.54381e+07 6.55368e+06)
(1.115e+08 1161.58 8302.08 9.84562e+07 1.54768e+07 6.51282e+06)
(1.11519e+08 -66.2616 6014.65 9.84879e+07 1.54775e+07 6.53675e+06)
(1.11512e+08 -1127.2 9976.05 9.8466e+07 1.54718e+07 6.53674e+06)
(1.11518e+08 -1037.4 5427.5 9.84815e+07 1.54407e+07 6.54215e+06)
(1.11508e+08 2092.62 1158.21 9.84637e+07 1.54722e+07 6.52982e+06)
(1.11506e+08 2518.76 -1822.81 9.84658e+07 1.55227e+07 6.51685e+06)
(1.11496e+08 -663.251 836.405 9.84415e+07 1.54853e+07 6.50831e+06)
(1.11507e+08 -1090.5 392.373 9.84653e+07 1.54738e+07 6.52351e+06)
(1.11503e+08 1324.07 -2066.6 9.84552e+07 1.54746e+07 6.51844e+06)
(1.11494e+08 -178.242 -113.082 9.84397e+07 1.54847e+07 6.50518e+06)
(1.11507e+08 -1770.22 1072.37 9.84654e+07 1.54737e+07 6.52213e+06)
(1.11516e+08 -877.03 -955.187 9.84711e+07 1.54712e+07 6.54699e+06)
(1.11503e+08 -60.0333 -3073.21 9.84596e+07 1.54733e+07 6.5184e+06)
(1.11505e+08 1420.35 -6604.02 9.84615e+07 1.54762e+07 6.52271e+06)
(1.11516e+08 939.174 -8013.2 9.8483e+07 1.54969e+07 6.53246e+06)
(1.11504e+08 -633.965 -12212.1 9.84614e+07 1.54757e+07 6.51719e+06)
(1.11514e+08 -507.882 -15140.4 9.84796e+07 1.54749e+07 6.53119e+06)
(1.11528e+08 1273.22 -10523 9.85071e+07 1.5492e+07 6.55277e+06)
(1.11477e+08 -2519.18 -19314.6 9.84357e+07 1.54851e+07 6.51418e+06)
(1.11317e+08 -44599.4 -111333 9.83931e+07 1.54502e+07 6.50278e+06)
(1.09646e+08 -211274 -861026 9.77802e+07 1.51729e+07 5.54198e+06)
(9.3962e+07 -398007 -4.42203e+06 9.09628e+07 1.38144e+07 -2.99689e+06)
(5.26323e+07 -916235 -2.59837e+07 8.56688e+07 1.36096e+07 1.84899e+07)
(5.41928e+07 721134 2.68917e+07 9.2777e+07 8.49737e+06 2.19553e+07)
(9.69905e+07 314045 4.62231e+06 9.87864e+07 8.45119e+06 -80279.3)
(1.13368e+08 164917 937310 1.06192e+08 9.3834e+06 8.93441e+06)
(1.15118e+08 38007.5 121966 1.06897e+08 9.65613e+06 9.92548e+06)
(1.15314e+08 4082.97 25718.7 1.06981e+08 9.67721e+06 9.96841e+06)
(1.15315e+08 -1257.96 15616.9 1.06959e+08 9.71837e+06 9.93621e+06)
(1.15348e+08 -1982.06 12304.5 1.07013e+08 9.6804e+06 9.97911e+06)
(1.15326e+08 803.979 11863.2 1.06971e+08 9.67424e+06 9.95318e+06)
(1.15325e+08 -833.085 5990.28 1.06973e+08 9.71097e+06 9.94577e+06)
(1.15337e+08 -1482.6 1809.68 1.06985e+08 9.64801e+06 9.9708e+06)
(1.15344e+08 -820.5 4793.52 1.07004e+08 9.66887e+06 9.97715e+06)
(1.15346e+08 107.02 5002.47 1.06994e+08 9.647e+06 9.99336e+06)
(1.15328e+08 2473.91 -820.992 1.06966e+08 9.65282e+06 9.9614e+06)
(1.15323e+08 422.147 1431.55 1.06961e+08 9.68131e+06 9.95066e+06)
(1.1533e+08 -1306.89 497.283 1.06975e+08 9.67201e+06 9.96064e+06)
(1.15336e+08 961.142 -1639.29 1.06982e+08 9.64803e+06 9.97148e+06)
(1.15323e+08 437.866 -452.763 1.0696e+08 9.68058e+06 9.94948e+06)
(1.1533e+08 -2166.87 320.992 1.06975e+08 9.67258e+06 9.95859e+06)
(1.15345e+08 -766.344 -1525.31 1.06992e+08 9.64727e+06 9.99082e+06)
(1.15326e+08 682.176 -3073.84 1.06969e+08 9.67167e+06 9.95671e+06)
(1.15334e+08 1527.38 -10304.8 1.06975e+08 9.67316e+06 9.97396e+06)
(1.15334e+08 935.896 -7398.66 1.06984e+08 9.67813e+06 9.96131e+06)
(1.15326e+08 -248.768 -3460.46 1.06972e+08 9.67355e+06 9.95326e+06)
(1.1534e+08 350.361 -15712.2 1.0699e+08 9.68639e+06 9.97802e+06)
(1.15336e+08 213.103 -14444.6 1.06992e+08 9.68758e+06 9.96802e+06)
(1.15299e+08 -4276.46 -19502.8 1.06951e+08 9.67828e+06 9.95536e+06)
(1.15138e+08 -37327.8 -127866 1.0692e+08 9.626e+06 9.96824e+06)
(1.13357e+08 -163290 -938516 1.06177e+08 9.38812e+06 8.91473e+06)
(9.69947e+07 -313337 -4.62373e+06 9.87892e+07 8.45041e+06 -76489.6)
(5.41977e+07 -720587 -2.68849e+07 9.27879e+07 8.531e+06 2.19579e+07)
(5.50582e+07 497515 2.75538e+07 9.71439e+07 5.2835e+06 2.38187e+07)
(9.86706e+07 231037 4.79275e+06 1.03572e+08 5.15559e+06 1.31217e+06)
(1.15525e+08 122600 996452 1.11397e+08 5.83726e+06 1.06139e+07)
(1.17348e+08 30046.9 143028 1.12171e+08 6.02005e+06 1.16633e+07)
(1.1755e+08 3510.49 27192.3 1.12244e+08 6.06844e+06 1.17054e+07)
(1.17559e+08 -506.871 10935.1 1.12228e+08 6.04662e+06 1.16826e+07)
(1.17586e+08 -1400.25 12153.4 1.12271e+08 6.06692e+06 1.1715e+07)
(1.17572e+08 -697.232 11640.7 1.12248e+08 6.03614e+06 1.16947e+07)
(1.17567e+08 -97.3151 1994.76 1.12238e+08 6.04062e+06 1.16883e+07)
(1.17585e+08 -102.237 5388.03 1.12271e+08 6.03545e+06 1.17083e+07)
(1.17575e+08 -887.649 4074.03 1.12258e+08 6.06335e+06 1.16955e+07)
(1.17587e+08 -885.745 -2267.24 1.12271e+08 6.03439e+06 1.1716e+07)
(1.17589e+08 1464.44 4143.59 1.12273e+08 6.01783e+06 1.17206e+07)
(1.17572e+08 266.805 5166.94 1.12244e+08 6.04079e+06 1.16961e+07)
(1.17575e+08 -471.548 -3441.15 1.12251e+08 6.03476e+06 1.17006e+07)
(1.17586e+08 727.149 -1154.74 1.12271e+08 6.03494e+06 1.17132e+07)
(1.17572e+08 -162.15 3218.51 1.12244e+08 6.04008e+06 1.16956e+07)
(1.17575e+08 -1341.7 -4582.34 1.12251e+08 6.03544e+06 1.16995e+07)
(1.17584e+08 -1002.85 -1781.25 1.12267e+08 6.03449e+06 1.17098e+07)
(1.17581e+08 -464.056 1046.99 1.1226e+08 6.0128e+06 1.17119e+07)
(1.17586e+08 2472.19 -6004.34 1.12261e+08 6.01568e+06 1.17247e+07)
(1.17569e+08 1507.18 -6740.23 1.12244e+08 6.07036e+06 1.16863e+07)
(1.17571e+08 -708.3 -11418.3 1.12248e+08 6.03641e+06 1.16936e+07)
(1.17579e+08 1032.02 -15626.4 1.12259e+08 6.04084e+06 1.17045e+07)
(1.17579e+08 -707.213 -10003.4 1.12263e+08 6.05075e+06 1.1706e+07)
(1.17552e+08 -4519.85 -24752.5 1.12245e+08 6.01636e+06 1.17118e+07)
(1.17369e+08 -27901.9 -144498 1.12198e+08 6.0158e+06 1.17026e+07)
(1.15525e+08 -121561 -994515 1.11394e+08 5.83918e+06 1.06166e+07)
(9.86742e+07 -230824 -4.79435e+06 1.03574e+08 5.15454e+06 1.31706e+06)
(5.50576e+07 -498116 -2.7551e+07 9.71372e+07 5.28943e+06 2.3813e+07)
(5.55676e+07 315982 2.79917e+07 9.98565e+07 3.3022e+06 2.48649e+07)
(9.96464e+07 160377 4.92813e+06 1.06517e+08 3.17243e+06 2.02638e+06)
(1.16814e+08 88778.4 1.04162e+06 1.14631e+08 3.67058e+06 1.15142e+07)
(1.187e+08 21507.1 149238 1.15478e+08 3.77936e+06 1.26117e+07)
(1.18907e+08 2810.04 28356.8 1.15543e+08 3.79892e+06 1.26542e+07)
(1.18926e+08 538.882 14050.2 1.15545e+08 3.80018e+06 1.26391e+07)
(1.18929e+08 -1023.27 11233.6 1.15549e+08 3.82365e+06 1.2635e+07)
(1.18935e+08 -1067.39 8199.13 1.15558e+08 3.79307e+06 1.26445e+07)
(1.18933e+08 828.708 5717.42 1.15553e+08 3.79653e+06 1.26422e+07)
(1.18937e+08 -123.683 5011.63 1.15563e+08 3.81884e+06 1.26436e+07)
(1.18934e+08 -1124.41 3384.81 1.15555e+08 3.79558e+06 1.26445e+07)
(1.18944e+08 718.363 -2112.39 1.15573e+08 3.79831e+06 1.26567e+07)
(1.18947e+08 586.616 1251.2 1.15579e+08 3.82075e+06 1.26579e+07)
(1.18937e+08 -1212.48 5010.2 1.15557e+08 3.79598e+06 1.26479e+07)
(1.18937e+08 466.905 64.834 1.15559e+08 3.79185e+06 1.26485e+07)
(1.18938e+08 573.829 -784.125 1.15564e+08 3.81793e+06 1.26463e+07)
(1.18936e+08 -966.166 -513.718 1.15557e+08 3.79523e+06 1.26466e+07)
(1.18938e+08 -611.78 -1432.4 1.15561e+08 3.79274e+06 1.26492e+07)
(1.18941e+08 -233.87 -5616.49 1.15567e+08 3.79808e+06 1.26529e+07)
(1.18949e+08 -660.621 -6522.19 1.15579e+08 3.79157e+06 1.26634e+07)
(1.18952e+08 1259.66 -1661.72 1.15585e+08 3.77379e+06 1.26687e+07)
(1.1893e+08 1161.52 -2285.54 1.15547e+08 3.79945e+06 1.26397e+07)
(1.18934e+08 444.324 -7924.67 1.15558e+08 3.79372e+06 1.26435e+07)
(1.18932e+08 1879.38 -15268 1.15555e+08 3.82242e+06 1.26381e+07)
(1.18935e+08 -907.511 -17081.4 1.15562e+08 3.82659e+06 1.26472e+07)
(1.18918e+08 -4729.8 -22968.7 1.15567e+08 3.79371e+06 1.26646e+07)
(1.18706e+08 -20714 -145934 1.15487e+08 3.78125e+06 1.26233e+07)
(1.16816e+08 -88089.4 -1.04276e+06 1.14631e+08 3.67098e+06 1.15205e+07)
(9.96574e+07 -160097 -4.9303e+06 1.06526e+08 3.17196e+06 2.04914e+06)
(5.55667e+07 -316655 -2.79902e+07 9.98515e+07 3.30679e+06 2.48593e+07)
(5.58864e+07 190584 2.82629e+07 1.01558e+08 2.07179e+06 2.54935e+07)
(1.00241e+08 105462 5.01938e+06 1.08335e+08 1.9687e+06 2.44089e+06)
(1.17618e+08 62928.3 1.07514e+06 1.16665e+08 2.2917e+06 1.20632e+07)
(1.19542e+08 15848.6 156625 1.17563e+08 2.38563e+06 1.31815e+07)
(1.19752e+08 2219.34 28769.3 1.17629e+08 2.40034e+06 1.32143e+07)
(1.1978e+08 451.564 14029.8 1.17639e+08 2.40086e+06 1.3214e+07)
(1.19779e+08 -678.772 10704.4 1.17633e+08 2.40306e+06 1.32086e+07)
(1.19786e+08 -638.358 8123.56 1.17646e+08 2.39687e+06 1.32157e+07)
(1.19786e+08 458.036 6004.25 1.17644e+08 2.39859e+06 1.32164e+07)
(1.1979e+08 -89.7427 4939.21 1.17647e+08 2.40085e+06 1.32275e+07)
(1.19787e+08 -275.446 -725.1 1.17646e+08 2.39942e+06 1.32185e+07)
(1.19796e+08 1196.86 1468.08 1.1766e+08 2.40009e+06 1.32293e+07)
(1.19786e+08 -4.37581 5141.03 1.17644e+08 2.42398e+06 1.32152e+07)
(1.19788e+08 -1732.65 1187.26 1.17647e+08 2.39892e+06 1.32196e+07)
(1.19787e+08 156.482 81.0291 1.17645e+08 2.39591e+06 1.32182e+07)
(1.19791e+08 573.358 -519.891 1.17647e+08 2.40021e+06 1.32277e+07)
(1.19787e+08 -589.652 -756.05 1.17646e+08 2.39826e+06 1.32178e+07)
(1.19788e+08 -510.088 -5020.2 1.17648e+08 2.39649e+06 1.32196e+07)
(1.19806e+08 527.675 -2144.8 1.17671e+08 2.382e+06 1.32497e+07)
(1.19789e+08 905.303 -3293.73 1.17649e+08 2.4186e+06 1.32192e+07)
(1.19797e+08 265.508 -4551.21 1.17666e+08 2.42059e+06 1.32267e+07)
(1.19785e+08 -398.146 -1799.13 1.17641e+08 2.40144e+06 1.32158e+07)
(1.19786e+08 295.472 -7978.61 1.17646e+08 2.39765e+06 1.32155e+07)
(1.19781e+08 1875.56 -11210.2 1.17637e+08 2.40218e+06 1.32115e+07)
(1.19777e+08 112.068 -13641.9 1.17633e+08 2.42726e+06 1.32096e+07)
(1.19758e+08 -4323.27 -31665.7 1.1764e+08 2.41965e+06 1.32205e+07)
(1.19554e+08 -16357.1 -156744 1.17581e+08 2.3668e+06 1.32021e+07)
(1.1762e+08 -62328.2 -1.07219e+06 1.16666e+08 2.2911e+06 1.20701e+07)
(1.00243e+08 -104989 -5.02044e+06 1.08336e+08 1.96757e+06 2.44461e+06)
(5.58859e+07 -191020 -2.82625e+07 1.01556e+08 2.07514e+06 2.54903e+07)
(5.60913e+07 111649 2.84243e+07 1.02627e+08 1.29929e+06 2.58843e+07)
(1.00613e+08 67068.2 5.07891e+06 1.09457e+08 1.22662e+06 2.69952e+06)
(1.18126e+08 43589.9 1.09919e+06 1.17952e+08 1.44086e+06 1.24118e+07)
(1.20073e+08 11354.6 162097 1.18879e+08 1.50715e+06 1.35419e+07)
(1.20293e+08 1673.66 30025.7 1.18951e+08 1.51842e+06 1.35858e+07)
(1.20318e+08 511.152 14144.5 1.18959e+08 1.51811e+06 1.35766e+07)
(1.2032e+08 -408.579 10357.8 1.18958e+08 1.51974e+06 1.35745e+07)
(1.20324e+08 -427.67 7826.11 1.18965e+08 1.51599e+06 1.3577e+07)
(1.20324e+08 117.793 5985.82 1.18964e+08 1.51675e+06 1.35778e+07)
(1.20328e+08 -63.5522 4841.89 1.18967e+08 1.51919e+06 1.3588e+07)
(1.20325e+08 620.814 2695.45 1.18965e+08 1.51773e+06 1.3581e+07)
(1.20325e+08 719.918 1744.54 1.18965e+08 1.53924e+06 1.35797e+07)
(1.20322e+08 -636.331 1730.24 1.18957e+08 1.52179e+06 1.35781e+07)
(1.20326e+08 -1552.3 747.184 1.18966e+08 1.51758e+06 1.35813e+07)
(1.2033e+08 4.17859 -58.6434 1.18972e+08 1.49726e+06 1.3588e+07)
(1.20325e+08 870.581 -315.912 1.18964e+08 1.51842e+06 1.35786e+07)
(1.20325e+08 -450.808 -849.57 1.18965e+08 1.51721e+06 1.3579e+07)
(1.20325e+08 662.524 -5251.35 1.18963e+08 1.51574e+06 1.35793e+07)
(1.20334e+08 4.34558 -2023.67 1.18982e+08 1.53941e+06 1.35898e+07)
(1.20329e+08 129.419 421.539 1.18968e+08 1.49968e+06 1.35876e+07)
(1.20321e+08 672.567 -4184.08 1.18959e+08 1.5401e+06 1.35746e+07)
(1.20324e+08 -764.62 -5154.87 1.18962e+08 1.51871e+06 1.35796e+07)
(1.20324e+08 203.092 -7871.11 1.18965e+08 1.51673e+06 1.35775e+07)
(1.20321e+08 1059.83 -10685 1.18959e+08 1.51949e+06 1.35762e+07)
(1.20315e+08 -57.7343 -13788.4 1.1895e+08 1.5226e+06 1.35744e+07)
(1.2029e+08 -2151.19 -32958.5 1.18949e+08 1.51796e+06 1.35802e+07)
(1.20081e+08 -11927.1 -162271 1.1889e+08 1.52736e+06 1.35544e+07)
(1.18128e+08 -44014.7 -1.09596e+06 1.17953e+08 1.43958e+06 1.24177e+07)
(1.00614e+08 -66402.2 -5.07981e+06 1.09458e+08 1.22556e+06 2.70092e+06)
(5.60914e+07 -111839 -2.84248e+07 1.02629e+08 1.30174e+06 2.58829e+07)
(5.62272e+07 64626.4 2.85182e+07 1.03309e+08 790458 2.61369e+07)
(1.00847e+08 42000.6 5.11596e+06 1.10149e+08 762599 2.86379e+06)
(1.18445e+08 29452.4 1.11601e+06 1.18757e+08 901316 1.26322e+07)
(1.20407e+08 7595.97 165989 1.19706e+08 947461 1.3771e+07)
(1.20631e+08 1181.6 30026.3 1.19785e+08 936797 1.38125e+07)
(1.20658e+08 859.329 14397.7 1.1979e+08 954998 1.38068e+07)
(1.20661e+08 -197.584 10136.4 1.1979e+08 955771 1.38059e+07)
(1.20662e+08 -278.912 7565.12 1.19794e+08 954065 1.38065e+07)
(1.20663e+08 18.1704 5715.39 1.19793e+08 954579 1.38066e+07)
(1.20662e+08 -80.3188 4658.95 1.19793e+08 955910 1.38065e+07)
(1.20664e+08 196.602 2963.68 1.19794e+08 955040 1.38106e+07)
(1.20661e+08 467.86 2062.43 1.19785e+08 957118 1.38076e+07)
(1.20664e+08 -143.631 1708.01 1.19791e+08 957842 1.38113e+07)
(1.20665e+08 -633.098 -3120.06 1.19795e+08 955404 1.38112e+07)
(1.20673e+08 54.1976 -68.2854 1.19809e+08 953858 1.38214e+07)
(1.20664e+08 278.075 3317.42 1.19795e+08 956358 1.38094e+07)
(1.20664e+08 -766.428 -990.865 1.19795e+08 955394 1.38091e+07)
(1.20668e+08 1044.9 -1787.13 1.19801e+08 936455 1.38161e+07)
(1.20663e+08 731.327 -5338.34 1.19792e+08 977916 1.38077e+07)
(1.20673e+08 -1056.24 -2803.29 1.19807e+08 955519 1.38221e+07)
(1.20665e+08 15.8614 -547.073 1.19792e+08 940774 1.38135e+07)
(1.20663e+08 29.9496 -5321.62 1.19792e+08 955101 1.38102e+07)
(1.20663e+08 213.154 -7762.7 1.19794e+08 954745 1.38076e+07)
(1.20661e+08 561.902 -10300.3 1.19791e+08 955883 1.38076e+07)
(1.20656e+08 -189.432 -13838.8 1.19786e+08 957592 1.38078e+07)
(1.20629e+08 -1573.88 -30400.2 1.1978e+08 954742 1.38115e+07)
(1.20409e+08 -8631.47 -166594 1.19705e+08 949832 1.37787e+07)
(1.18446e+08 -29710.5 -1.11623e+06 1.18755e+08 899780 1.2636e+07)
(1.00847e+08 -40709.9 -5.11694e+06 1.10149e+08 761816 2.86337e+06)
(5.62237e+07 -64359.8 -2.85195e+07 1.03302e+08 811769 2.61277e+07)
(5.63145e+07 37075.2 2.85697e+07 1.03736e+08 498092 2.62937e+07)
(1.00992e+08 24876.6 5.14338e+06 1.10571e+08 467815 2.96541e+06)
(1.18643e+08 19284.5 1.1274e+06 1.19255e+08 555611 1.27689e+07)
(1.20615e+08 5652.44 165483 1.2022e+08 586821 1.39146e+07)
(1.20846e+08 766.599 30380.8 1.2031e+08 591772 1.39612e+07)
(1.20868e+08 210.408 17918.1 1.20305e+08 591252 1.395e+07)
(1.20872e+08 -16.7136 10034.5 1.20307e+08 591954 1.39497e+07)
(1.20873e+08 -158.608 7398.12 1.20309e+08 591281 1.39498e+07)
(1.20874e+08 70.4753 5645.58 1.20309e+08 591792 1.39498e+07)
(1.20874e+08 -144.539 4576.95 1.20309e+08 593120 1.39504e+07)
(1.20875e+08 -424.42 3080.35 1.20309e+08 591458 1.39535e+07)
(1.20878e+08 377.733 2266.79 1.20313e+08 575743 1.39601e+07)
(1.20876e+08 410.61 1635.42 1.2031e+08 593337 1.39557e+07)
(1.20876e+08 72.4814 111.132 1.20311e+08 592407 1.39546e+07)
(1.20876e+08 73.6631 58.0595 1.20311e+08 609889 1.39548e+07)
(1.20876e+08 -199.864 56.8009 1.20311e+08 593191 1.39549e+07)
(1.20876e+08 -116.999 -4647.4 1.20311e+08 592765 1.39537e+07)
(1.20884e+08 559.078 -1607.25 1.20326e+08 592054 1.39641e+07)
(1.20872e+08 524.806 1608.32 1.20304e+08 596141 1.39512e+07)
(1.20876e+08 -233.241 -6239.03 1.2031e+08 610795 1.39553e+07)
(1.20883e+08 -691.621 -3944.22 1.20323e+08 594786 1.3965e+07)
(1.20873e+08 -341.445 -2002.05 1.20306e+08 591303 1.39527e+07)
(1.20874e+08 308.217 -7607.89 1.2031e+08 592038 1.39514e+07)
(1.20873e+08 260.312 -10129 1.20308e+08 592052 1.39516e+07)
(1.20869e+08 -348.111 -13958.3 1.20305e+08 592697 1.39524e+07)
(1.20839e+08 -1300.06 -34358.9 1.20295e+08 590660 1.39546e+07)
(1.20625e+08 -6205.49 -169724 1.20233e+08 570860 1.39331e+07)
(1.18649e+08 -19313.9 -1.12434e+06 1.19262e+08 536782 1.27798e+07)
(1.00991e+08 -23963.8 -5.13924e+06 1.10571e+08 467644 2.96538e+06)
(5.6308e+07 -36519.6 -2.85738e+07 1.0372e+08 497902 2.62792e+07)
(5.63603e+07 20761.9 2.86043e+07 1.03973e+08 314608 2.63723e+07)
(1.0108e+08 13844.8 5.15129e+06 1.10824e+08 275749 3.02755e+06)
(1.18763e+08 11977.7 1.13481e+06 1.19555e+08 329064 1.28515e+07)
(1.20741e+08 4043.4 171093 1.20532e+08 349109 1.40017e+07)
(1.2097e+08 218.878 31055.7 1.20612e+08 369411 1.40482e+07)
(1.20995e+08 -171.469 14461.3 1.20616e+08 351113 1.40359e+07)
(1.21e+08 216.13 10050.7 1.20621e+08 351952 1.40367e+07)
(1.21001e+08 -74.2132 7299.52 1.20623e+08 351668 1.40366e+07)
(1.21002e+08 9.29484 5692.46 1.20623e+08 352184 1.40366e+07)
(1.21005e+08 -318.215 4545.56 1.20625e+08 353115 1.40455e+07)
(1.21002e+08 119.452 -392.662 1.2062e+08 351363 1.4039e+07)
(1.21012e+08 455.981 2465.01 1.20638e+08 353184 1.40531e+07)
(1.21004e+08 -93.6834 5036.58 1.20624e+08 353109 1.40423e+07)
(1.21004e+08 -545.909 45.9418 1.20624e+08 352557 1.40412e+07)
(1.21005e+08 -51.9856 187.861 1.20624e+08 335156 1.40447e+07)
(1.21008e+08 462.853 151.3 1.20627e+08 352772 1.40503e+07)
(1.21007e+08 684.113 -1287.51 1.20628e+08 353122 1.40486e+07)
(1.21005e+08 359.012 -1438.5 1.20627e+08 370998 1.40421e+07)
(1.21003e+08 -834.168 -1774.31 1.2062e+08 354971 1.40411e+07)
(1.21005e+08 512.635 -2832.06 1.20624e+08 335808 1.40453e+07)
(1.21006e+08 -414.335 -4043.76 1.20626e+08 372633 1.40448e+07)
(1.21006e+08 -847.015 -5538.32 1.20627e+08 333936 1.40454e+07)
(1.21002e+08 592.628 -7511.56 1.20623e+08 352549 1.40393e+07)
(1.21001e+08 83.36 -10110.4 1.20621e+08 351693 1.40384e+07)
(1.20997e+08 -656.539 -14074.6 1.2062e+08 352150 1.40396e+07)
(1.20971e+08 70.9913 -34660.5 1.20617e+08 333292 1.4048e+07)
(1.20751e+08 -3024.4 -175493 1.20548e+08 368274 1.40182e+07)
(1.18774e+08 -12902.2 -1.13188e+06 1.19573e+08 328503 1.28672e+07)
(1.0108e+08 -14164.6 -5.14857e+06 1.10824e+08 275555 3.02892e+06)
(5.63594e+07 -20514.1 -2.86023e+07 1.03973e+08 294964 2.63685e+07)
(5.63897e+07 10693.3 2.86215e+07 1.04115e+08 135663 2.64243e+07)
(1.01129e+08 7889.39 5.15868e+06 1.10966e+08 144299 3.06055e+06)
(1.1883e+08 6453.22 1.1393e+06 1.19725e+08 172835 1.28978e+07)
(1.20816e+08 1413.78 173038 1.20712e+08 183822 1.40592e+07)
(1.21038e+08 -313.258 30490.2 1.20784e+08 167260 1.40883e+07)
(1.21073e+08 719.117 14687.7 1.20803e+08 167342 1.40909e+07)
(1.21073e+08 621.339 10133.7 1.208e+08 185424 1.40862e+07)
(1.21074e+08 -20.4164 7243.75 1.208e+08 185282 1.40854e+07)
(1.21074e+08 -70.4972 5532.56 1.208e+08 185753 1.40858e+07)
(1.21074e+08 -672.126 4255.19 1.208e+08 185490 1.40859e+07)
(1.21079e+08 718.048 3256.77 1.20806e+08 167648 1.40935e+07)
(1.21079e+08 751.176 2684.58 1.20805e+08 204384 1.40944e+07)
(1.21076e+08 -622.412 1531.88 1.20801e+08 186636 1.40914e+07)
(1.21076e+08 -126.213 -3493.61 1.20802e+08 185962 1.40901e+07)
(1.21084e+08 -218.144 -5.86208 1.20813e+08 185892 1.41e+07)
(1.21076e+08 32.8294 3594.43 1.208e+08 184611 1.40895e+07)
(1.21075e+08 507.733 -984.576 1.20801e+08 186032 1.40887e+07)
(1.21074e+08 190.753 -1139.29 1.20797e+08 187016 1.40872e+07)
(1.2108e+08 -90.6256 -5169.29 1.20803e+08 186675 1.4099e+07)
(1.21084e+08 252.04 -2734.61 1.20814e+08 186719 1.41008e+07)
(1.21079e+08 -300.194 -4296.54 1.20801e+08 187661 1.40991e+07)
(1.21083e+08 -425.906 -5688.14 1.20814e+08 185004 1.40991e+07)
(1.21079e+08 -5.02439 -4314.03 1.20804e+08 185849 1.40964e+07)
(1.21073e+08 69.9877 -10154.2 1.20798e+08 184571 1.40866e+07)
(1.2107e+08 0.509547 -17594 1.20799e+08 185524 1.40889e+07)
(1.21049e+08 533.192 -31346.4 1.20804e+08 184524 1.41027e+07)
(1.20814e+08 -1238.97 -169559 1.20707e+08 203121 1.40567e+07)
(1.18834e+08 -7669.84 -1.14003e+06 1.19731e+08 190859 1.29045e+07)
(1.01128e+08 -7973.13 -5.159e+06 1.10964e+08 143197 3.06151e+06)
(5.63884e+07 -10511 -2.86216e+07 1.04115e+08 155688 2.64186e+07)
(5.64075e+07 3326.4 2.86261e+07 1.04193e+08 48820 2.64564e+07)
(1.0115e+08 2146.89 5.16712e+06 1.11029e+08 44681.9 3.07396e+06)
(1.1886e+08 1944.34 1.14123e+06 1.19801e+08 53671.7 1.29181e+07)
(1.20844e+08 131.447 169292 1.20788e+08 56585.8 1.40722e+07)
(1.21082e+08 245.429 27161.6 1.20886e+08 40349.5 1.41234e+07)
(1.21111e+08 500.226 18221.7 1.20894e+08 57588.5 1.41193e+07)
(1.21106e+08 11.7808 13682.5 1.2088e+08 57449.5 1.41088e+07)
(1.21106e+08 6.32377 7226.83 1.2088e+08 57532.6 1.41074e+07)
(1.21107e+08 -36.1451 5445.8 1.2088e+08 57710.5 1.4108e+07)
(1.21107e+08 -32.192 695.177 1.20881e+08 57538.1 1.41075e+07)
(1.21117e+08 202.73 3403.34 1.20896e+08 57747.5 1.41214e+07)
(1.21107e+08 -30.3731 6320.01 1.20876e+08 58348.9 1.41118e+07)
(1.21112e+08 -161.111 1476.29 1.20884e+08 57808.7 1.41217e+07)
(1.21109e+08 438.526 -227.568 1.20882e+08 57907.7 1.41118e+07)
(1.2111e+08 -337.814 -210.057 1.20881e+08 75380 1.41135e+07)
(1.21107e+08 -426.864 275.014 1.20878e+08 56515.7 1.4109e+07)
(1.21112e+08 415.601 -680.389 1.20885e+08 58005.6 1.41185e+07)
(1.21108e+08 96.8188 -1260.57 1.20879e+08 58319.6 1.41106e+07)
(1.21109e+08 624.784 -1820.81 1.20881e+08 57353.6 1.41116e+07)
(1.21111e+08 100.923 -2614.07 1.20885e+08 76268.7 1.41157e+07)
(1.21108e+08 -346.727 -4321.2 1.2088e+08 58435.7 1.41131e+07)
(1.21109e+08 -192.482 -5803.16 1.20881e+08 74998.9 1.41124e+07)
(1.21108e+08 -601.983 -7451.81 1.20881e+08 57323.7 1.41099e+07)
(1.21105e+08 69.2869 -9979.93 1.20876e+08 56342.2 1.41073e+07)
(1.21104e+08 664.882 -14157.3 1.2088e+08 57490.4 1.41118e+07)
(1.21074e+08 115.075 -31332.9 1.20871e+08 74866.4 1.41161e+07)
(1.20842e+08 -745.224 -173481 1.2078e+08 57823.6 1.40744e+07)
(1.1886e+08 -3043.59 -1.14261e+06 1.19799e+08 54617.7 1.29204e+07)