/*--------------------------------*- C++ -*----------------------------------*\
| =========                 |                                                 |
| \\      /  F ield         | OpenFOAM: The Open Source CFD Toolbox           |
|  \\    /   O peration     | Version:  2106                                  |
|   \\  /    A nd           | Website:  www.openfoam.com                      |
|    \\/     M anipulation  |                                                 |
\*---------------------------------------------------------------------------*/
FoamFile
{
    version     2.0;
    format      ascii;
    arch        "LSB;label=32;scalar=64";
    class       volTensorField;
    location    "401";
    object      testEpsilon;
}
// * * * * * * * * * * * * * * * * * * * * * * * * * * * * * * * * * * * * * //

dimensions      [0 0 0 0 0 0 0];

internalField   nonuniform List<tensor> 
9000
(
(-0.0855903 0.00384328 -0.105481 -0.00437142 -0.147132 -0.257544 0.20183 0.38038 -0.0253273)
(-0.0167761 0.00368586 -0.00285735 -0.00261067 -0.156483 -0.270402 0.0216422 0.400674 -0.0697301)
(-0.00192992 0.00248203 0.00204146 -0.00181058 -0.166394 -0.28709 0.00310335 0.425418 -0.0594955)
(-0.000321508 0.000467682 0.000325169 -0.000366383 -0.168007 -0.290863 0.00058702 0.430968 -0.0573724)
(-5.57106e-05 -3.77621e-05 -2.75269e-05 2.2044e-05 -0.16809 -0.290979 0.000112624 0.431139 -0.0573806)
(-4.27862e-06 -2.21991e-05 -1.43156e-05 1.82747e-05 -0.167911 -0.290208 5.20116e-05 0.429948 -0.0576483)
(-1.64308e-06 -8.24692e-07 2.49806e-08 8.6336e-07 -0.168036 -0.290768 4.97456e-05 0.430838 -0.0575303)
(-7.75469e-08 -3.098e-05 -1.87809e-05 1.9158e-05 -0.167905 -0.2902 3.09644e-05 0.429945 -0.0576456)
(-8.61058e-07 3.99805e-05 2.55148e-05 -2.7102e-05 -0.167903 -0.29019 3.37114e-05 0.429929 -0.0576523)
(-6.511e-06 1.80569e-05 9.26764e-06 -4.6887e-06 -0.168077 -0.290879 -2.6272e-05 0.430993 -0.0574335)
(2.31897e-06 -6.39886e-05 -4.41717e-05 5.15622e-05 -0.167961 -0.290446 -5.65368e-05 0.430328 -0.0575552)
(7.87619e-06 1.72406e-05 1.34615e-05 -1.83603e-05 -0.16778 -0.289735 6.1898e-05 0.429237 -0.0577945)
(-4.39891e-06 5.98215e-05 4.11538e-05 -4.89675e-05 -0.168067 -0.290828 7.44671e-05 0.430919 -0.0574607)
(-4.26262e-06 -1.19892e-05 -1.0712e-05 1.36181e-05 -0.168085 -0.290836 -5.02231e-05 0.430945 -0.057447)
(3.4977e-06 5.97392e-06 3.83829e-06 -4.26494e-06 -0.167972 -0.290489 -8.82832e-07 0.430388 -0.0575408)
(-2.49294e-06 1.28606e-05 1.07318e-05 -1.52335e-05 -0.16808 -0.290891 5.08122e-05 0.431009 -0.0574337)
(-2.09963e-06 -1.8531e-05 -1.44326e-05 1.91854e-05 -0.168083 -0.29083 -5.63883e-05 0.430937 -0.0574529)
(6.8937e-08 1.28309e-06 1.38462e-06 2.0345e-07 -0.167976 -0.290497 -5.88147e-06 0.4304 -0.0575334)
(-2.08702e-06 -4.46451e-05 -2.81498e-05 3.13587e-05 -0.168069 -0.290847 -1.86332e-05 0.430947 -0.0574495)
(4.61128e-06 -4.11606e-05 -2.66033e-05 2.84149e-05 -0.167791 -0.289777 -2.34656e-05 0.429295 -0.0577613)
(2.72438e-06 5.9037e-05 4.00189e-05 -4.74815e-05 -0.16789 -0.290145 4.1493e-05 0.42987 -0.0576772)
(-5.67416e-06 4.55644e-05 2.91266e-05 -3.25464e-05 -0.168075 -0.290859 -1.30011e-05 0.430958 -0.0574519)
(-3.57105e-06 -3.4947e-05 -2.22135e-05 2.31524e-05 -0.168078 -0.290887 -3.94872e-05 0.431004 -0.0574355)
(-1.11101e-07 -7.46554e-06 -4.39224e-06 5.79332e-06 -0.167914 -0.290224 -4.76585e-05 0.429974 -0.057637)
(-8.09459e-06 1.16857e-05 6.52875e-06 -8.43584e-06 -0.168065 -0.290825 -5.62334e-05 0.430911 -0.057465)
(-5.42648e-05 -2.27438e-05 -1.39193e-05 2.64746e-05 -0.167924 -0.290317 -0.000177191 0.430116 -0.0575773)
(-0.000314933 -0.000439143 -0.000306633 0.000347659 -0.167877 -0.290384 -0.00058131 0.43024 -0.057514)
(-0.00193054 -0.00245477 -0.00202192 0.00178373 -0.16639 -0.28701 -0.00304626 0.425315 -0.0595198)
(-0.0167791 -0.00367793 0.00286255 0.00260464 -0.156482 -0.270397 -0.0216435 0.400668 -0.0697293)
(-0.0855901 -0.00384523 0.105484 0.00437328 -0.147132 -0.257533 -0.201836 0.380361 -0.0253307)
(-0.0724084 0.00189464 -0.1032 -0.00191818 -0.098083 -0.0790892 0.196183 0.215483 -0.128969)
(-0.0164001 0.00216234 -0.0042624 -0.000797893 -0.103203 -0.0826194 0.0203304 0.226139 -0.174999)
(-0.00180294 0.00153319 0.000977893 -0.000668028 -0.10924 -0.0876466 0.00211999 0.240138 -0.171315)
(-0.000206914 0.000316228 0.000119282 -0.000174402 -0.110407 -0.0888402 0.000347664 0.243648 -0.170632)
(-2.77416e-05 -1.66229e-05 1.45626e-06 4.08142e-06 -0.11043 -0.0888793 6.73764e-05 0.243754 -0.170676)
(-4.81759e-06 -1.59625e-05 -2.35499e-06 9.61117e-06 -0.110212 -0.0886955 6.60285e-05 0.24344 -0.170689)
(-2.34605e-06 6.87513e-07 1.30664e-06 5.21429e-07 -0.11038 -0.0888097 4.85992e-05 0.243578 -0.170699)
(-1.59064e-06 -9.98738e-06 5.92628e-06 6.57229e-06 -0.110189 -0.0886954 -1.46524e-05 0.243453 -0.170685)
(-7.26684e-07 1.51376e-05 -5.56803e-06 -1.11013e-05 -0.110191 -0.0886942 7.03467e-05 0.243437 -0.170691)
(-1.17533e-06 1.11638e-05 -1.85996e-06 3.40591e-06 -0.110406 -0.0888458 6.656e-05 0.243642 -0.170696)
(-4.96835e-07 -2.07404e-05 8.94591e-06 2.74957e-05 -0.110309 -0.088755 -3.52161e-05 0.243905 -0.170664)
(1.51685e-07 2.40703e-07 -3.86344e-06 -1.19627e-05 -0.110089 -0.0885916 8.92195e-06 0.24367 -0.170654)
(-9.263e-07 1.45819e-05 -8.03464e-06 -2.86121e-05 -0.110404 -0.0888181 5.36469e-05 0.243582 -0.170699)
(-7.06983e-07 3.46259e-06 3.90633e-06 8.98379e-06 -0.110382 -0.0888175 -1.11331e-06 0.24331 -0.170679)
(2.12412e-07 7.54105e-06 -7.99806e-07 -1.54851e-08 -0.110321 -0.0887704 -2.64766e-06 0.243944 -0.170668)
(-2.53615e-07 -5.31255e-06 -2.50858e-06 -1.26765e-05 -0.110409 -0.0888505 -8.2925e-07 0.243657 -0.170699)
(-1.70195e-07 -2.14967e-06 3.29687e-06 1.23782e-05 -0.11038 -0.0888163 -3.20288e-06 0.243306 -0.170681)
(-1.07922e-07 4.21371e-06 -9.47025e-07 3.38713e-06 -0.110325 -0.0887731 -4.01197e-06 0.243948 -0.170663)
(-6.89084e-07 -1.81373e-05 5.54168e-06 1.39245e-05 -0.110395 -0.0888334 -5.19832e-05 0.24361 -0.170699)
(-7.8794e-07 -1.59327e-05 6.04645e-06 1.21016e-05 -0.110095 -0.0886071 -5.858e-05 0.243724 -0.170653)
(-7.94983e-07 1.63111e-05 -1.01009e-05 -2.46144e-05 -0.110175 -0.088674 2.24797e-05 0.243392 -0.170679)
(-9.46298e-07 1.89789e-05 -5.97267e-06 -1.51155e-05 -0.110415 -0.0888341 1.922e-05 0.243609 -0.170703)
(-1.2071e-06 -1.13018e-05 6.44206e-06 9.0991e-06 -0.110406 -0.0888491 -7.88212e-05 0.243654 -0.170699)
(-1.76682e-06 -6.35479e-06 -1.26676e-06 2.83526e-06 -0.110205 -0.0887081 -4.31091e-05 0.243468 -0.170684)
(-5.48274e-06 1.00187e-05 1.99567e-06 -3.20661e-06 -0.110406 -0.0888241 -6.07711e-05 0.243576 -0.170702)
(-2.81028e-05 -1.95589e-06 7.28577e-06 2.16187e-05 -0.110222 -0.0887334 -0.000112966 0.243577 -0.170661)
(-0.000206636 -0.000312179 -0.000124963 0.000165086 -0.110296 -0.0887319 -0.000300722 0.243866 -0.170601)
(-0.00180308 -0.0015254 -0.000981018 0.000650161 -0.109204 -0.087604 -0.0021198 0.239775 -0.171313)
(-0.0164004 -0.00215418 0.00426207 0.000796434 -0.103202 -0.0826169 -0.0203348 0.226133 -0.174997)
(-0.0724076 -0.00189717 0.103201 0.00192076 -0.0980873 -0.0790893 -0.196186 0.215464 -0.128968)
(-0.0763103 -0.00107837 -0.104065 0.00342325 -0.0575609 -0.00938404 0.197582 0.125743 -0.153385)
(-0.0165261 0.0014545 -0.00456884 0.00028763 -0.0602211 -0.0111301 0.0203164 0.132449 -0.201961)
(-0.00180522 0.00104123 0.000797291 -2.45113e-06 -0.0633702 -0.0116312 0.00195094 0.141092 -0.199923)
(-0.000187086 0.00022956 7.86191e-05 -3.32141e-05 -0.0641066 -0.0117963 0.000267252 0.143611 -0.199622)
(-1.89079e-05 1.11161e-06 1.41577e-06 -2.71628e-06 -0.0641094 -0.0118075 0.000114338 0.14371 -0.199681)
(-4.99062e-06 -1.22036e-05 -3.95531e-07 2.16542e-06 -0.0640047 -0.0118185 7.05092e-05 0.143942 -0.199639)
(-2.25085e-06 3.75881e-06 4.21961e-08 8.66077e-07 -0.0640813 -0.0117955 4.80635e-05 0.14358 -0.199687)
(-2.4021e-06 6.97504e-06 4.31535e-06 2.00763e-06 -0.0639989 -0.0118353 3.63229e-05 0.144158 -0.199657)
(-1.49433e-06 -3.24237e-06 -4.55446e-06 -2.55176e-06 -0.0640073 -0.0118274 1.65083e-05 0.144134 -0.199661)
(1.20841e-06 -5.61612e-06 -2.89071e-06 2.31932e-07 -0.0640836 -0.0117985 1.82311e-05 0.143627 -0.199692)
(-7.5476e-07 -5.93546e-07 6.66727e-06 7.19793e-06 -0.0640731 -0.0118152 2.67794e-05 0.143597 -0.199676)
(-3.34537e-06 -1.77888e-06 8.46151e-07 -3.52355e-06 -0.0639851 -0.0118435 5.29011e-06 0.144118 -0.199638)
(-2.09601e-07 1.14304e-06 -4.03161e-06 -8.10303e-06 -0.0640634 -0.011787 -3.76941e-05 0.143399 -0.199647)
(1.4567e-06 4.68957e-06 -1.17373e-06 2.79411e-06 -0.0640155 -0.0118016 1.32214e-06 0.143638 -0.199673)
(-8.34355e-07 5.98901e-07 -2.76436e-06 4.91573e-07 -0.0640775 -0.0118148 2.65431e-05 0.143626 -0.199681)
(-1.41969e-08 1.00948e-06 1.54474e-06 -3.10265e-06 -0.0640855 -0.0118009 -3.46847e-05 0.143643 -0.199693)
(1.1131e-06 -1.70826e-06 1.0625e-06 2.49226e-06 -0.0640149 -0.0118024 8.88409e-07 0.143635 -0.199676)
(3.78189e-07 -1.75889e-06 -2.0189e-06 2.31491e-06 -0.0640793 -0.011815 2.71929e-05 0.143625 -0.199681)
(-3.44122e-07 1.21344e-06 5.04412e-06 3.54106e-06 -0.0640772 -0.0117927 3.50175e-06 0.143602 -0.199691)
(-3.09649e-06 2.91166e-06 5.27316e-06 2.68846e-06 -0.0639885 -0.0118492 -3.72989e-06 0.144131 -0.199643)
(-2.71904e-06 -4.83106e-06 -5.37211e-06 -6.20973e-06 -0.0639893 -0.0118305 -3.41602e-05 0.144141 -0.199648)
(1.06854e-06 -7.36497e-07 -5.90326e-06 -4.38104e-06 -0.0640737 -0.0117871 -3.71312e-05 0.143413 -0.199675)
(1.90951e-08 6.96845e-06 2.9738e-06 3.14191e-06 -0.064083 -0.0118001 -2.58318e-05 0.143641 -0.199694)
(-2.57224e-06 -7.48299e-06 6.22272e-07 -4.96709e-07 -0.0640171 -0.0118338 -4.09937e-05 0.144153 -0.199659)
(-4.33791e-06 8.32075e-06 1.48112e-06 -2.98139e-07 -0.0640772 -0.0117842 -6.15969e-05 0.143387 -0.199668)
(-2.06063e-05 -5.58821e-07 4.5107e-06 9.56027e-06 -0.0640293 -0.0118396 -0.000100414 0.14424 -0.199643)
(-0.000189224 -0.000235592 -8.07636e-05 3.06681e-05 -0.0640838 -0.0118081 -0.000303949 0.143549 -0.199604)
(-0.00180427 -0.00103598 -0.000798922 -2.44549e-06 -0.0632973 -0.0116235 -0.00196222 0.141044 -0.199911)
(-0.016525 -0.00145453 0.0045655 -0.000288687 -0.0602193 -0.0111292 -0.0202915 0.132445 -0.201957)
(-0.0763077 0.00107368 0.104064 -0.00341803 -0.0575706 -0.00938076 -0.197581 0.125715 -0.153385)
(-0.081884 -0.00282253 -0.10768 0.00645298 -0.0351718 0.00544046 0.204443 0.0764004 -0.154274)
(-0.0170853 0.00100049 -0.00471183 0.000759202 -0.0372367 0.00345688 0.021004 0.0810969 -0.205372)
(-0.0018671 0.000756102 0.000844658 0.000233483 -0.0391118 0.00393224 0.00214256 0.087305 -0.203487)
(-0.000206967 0.000168395 8.40226e-05 3.24265e-05 -0.039635 0.00401799 0.000302684 0.0889765 -0.203197)
(-2.06657e-05 3.75107e-06 -2.97691e-06 -5.1178e-06 -0.0396447 0.0040181 8.89212e-05 0.0890699 -0.203262)
(-4.10112e-06 -1.03498e-05 3.67606e-08 -2.88699e-06 -0.0395862 0.00398852 7.11178e-05 0.0888946 -0.203227)
(-2.37761e-06 1.83807e-06 -2.0654e-06 9.21969e-07 -0.0396109 0.00401588 6.71828e-05 0.0888444 -0.203255)
(-2.27421e-06 4.8064e-06 -4.60817e-07 -1.70185e-06 -0.0396283 0.00398626 3.49894e-05 0.0890441 -0.203276)
(-1.08182e-06 -1.80181e-06 1.8001e-06 2.78174e-06 -0.0396223 0.00399182 1.90986e-05 0.0888906 -0.203239)
(7.74603e-07 -1.99006e-06 5.87456e-07 2.78227e-06 -0.0396204 0.0040167 1.9381e-05 0.0890133 -0.203271)
(-1.24793e-06 -1.03198e-06 -6.47756e-08 -2.7941e-06 -0.0396162 0.0040113 2.59402e-05 0.0889944 -0.203266)
(-2.90851e-06 2.18242e-06 1.77566e-06 -5.2451e-07 -0.0396206 0.00398093 -1.3956e-05 0.0890068 -0.203243)
(3.37232e-07 8.50561e-06 3.55407e-07 3.3127e-06 -0.0395752 0.00400211 -9.32476e-06 0.0890324 -0.203249)
(1.01194e-06 6.41315e-07 -1.65272e-06 1.23934e-06 -0.0395962 0.00399335 2.13552e-05 0.0893695 -0.203275)
(-9.66941e-07 -6.46417e-06 -6.52018e-07 -4.24543e-07 -0.0396135 0.00401125 -1.03616e-06 0.0890212 -0.203269)
(1.46523e-07 7.21428e-06 -2.95034e-08 1.03354e-06 -0.039622 0.00401388 -6.64567e-06 0.0890306 -0.203273)
(9.13319e-07 -9.146e-07 4.65196e-07 -4.12542e-07 -0.0395967 0.00399333 4.75767e-07 0.0893663 -0.203279)
(1.01837e-07 -8.26464e-06 1.0021e-06 -2.00751e-07 -0.0396135 0.00401106 5.5766e-07 0.0890202 -0.203271)
(-6.14375e-07 3.13864e-08 -1.28686e-06 -3.10048e-06 -0.0396171 0.00401926 1.40821e-06 0.0889933 -0.203248)
(-2.7381e-06 1.65352e-06 -1.52481e-06 -3.17358e-06 -0.0396219 0.00398061 -6.57295e-06 0.0890272 -0.203269)
(-2.20888e-06 -7.27708e-07 2.30822e-06 2.97387e-06 -0.0396234 0.00398492 -5.13939e-05 0.0890255 -0.203251)
(9.24029e-07 2.3148e-07 1.08979e-07 2.84738e-06 -0.0395852 0.00401315 -3.59014e-05 0.0890062 -0.203243)
(-4.30231e-07 1.07991e-08 -2.88518e-06 -2.66267e-06 -0.0396176 0.00401488 -7.61112e-06 0.0890314 -0.203275)
(-2.45483e-06 -5.19223e-06 1.92334e-06 -2.48745e-06 -0.0396268 0.00399164 -6.09025e-05 0.0888971 -0.203262)
(-3.47134e-06 7.59142e-06 8.35573e-07 2.05742e-06 -0.0395793 0.00401323 -6.18265e-05 0.0888515 -0.20322)
(-2.19096e-05 -3.25847e-06 2.50216e-06 3.39432e-06 -0.0396525 0.00398933 -7.61192e-05 0.0890975 -0.203257)
(-0.000209037 -0.000165793 -8.17486e-05 -2.97382e-05 -0.0396213 0.00401123 -0.000308461 0.0889326 -0.203187)
(-0.00186696 -0.000752519 -0.000845231 -0.000232405 -0.0390878 0.00391289 -0.0021566 0.087609 -0.203461)
(-0.0170835 -0.00100884 0.00471062 -0.000761651 -0.0372354 0.00345704 -0.0210099 0.081094 -0.205369)
(-0.0818885 0.00281394 0.107678 -0.00644289 -0.0351628 0.00544581 -0.204437 0.076242 -0.154258)
(-0.0860648 -0.00311418 -0.112105 0.00667053 -0.0220622 0.00482882 0.212868 0.0479553 -0.152267)
(-0.01777 0.000666496 -0.00487048 0.000874171 -0.0235816 0.00285453 0.0219896 0.0507073 -0.205723)
(-0.00195057 0.000561581 0.000909513 0.000263018 -0.0249356 0.00331589 0.00241976 0.0554812 -0.203761)
(-0.000234806 0.00012299 9.57907e-05 4.95539e-05 -0.0252908 0.00340373 0.000331535 0.0565317 -0.20343)
(-2.59706e-05 1.08587e-05 -4.47855e-06 5.71418e-08 -0.0252922 0.00340644 8.85409e-05 0.0565095 -0.203489)
(-3.78267e-06 -5.45591e-06 -8.39298e-07 -3.78816e-06 -0.0252485 0.00338869 4.91917e-05 0.0568172 -0.203519)
(-2.01382e-06 -4.64837e-06 -4.10149e-07 -8.94053e-07 -0.0252494 0.00339925 6.32798e-05 0.0564541 -0.203495)
(-2.03015e-06 4.70031e-06 -4.95771e-07 -1.96843e-07 -0.0252872 0.0034074 3.26829e-05 0.0565963 -0.203519)
(-5.97507e-07 -1.67138e-06 1.53451e-06 1.41448e-06 -0.0252607 0.00339945 2.17843e-05 0.0566067 -0.203508)
(9.32457e-08 -4.40139e-06 1.00424e-06 3.12475e-08 -0.0252898 0.00340203 3.76729e-05 0.0565821 -0.203495)
(-1.41612e-06 -6.39708e-07 -4.87449e-07 -3.38229e-06 -0.0252722 0.00340144 2.15299e-05 0.0564622 -0.203497)
(-2.12401e-06 6.42781e-06 -9.91546e-07 1.68529e-06 -0.0252878 0.00340475 5.48194e-06 0.056581 -0.203502)
(1.43169e-07 6.02868e-06 -1.54815e-06 3.73655e-06 -0.0252777 0.00338456 -5.51888e-06 0.0567969 -0.203521)
(7.09254e-07 -2.97876e-06 6.55429e-07 4.07334e-07 -0.0253047 0.0033953 2.58731e-06 0.0566412 -0.203517)
(-8.75515e-07 -4.55352e-06 1.3412e-06 3.25643e-07 -0.0252822 0.00340132 1.80031e-07 0.0565904 -0.203511)
(-1.17966e-08 4.38244e-06 -2.03996e-06 7.50957e-07 -0.0252926 0.00340329 -5.97223e-06 0.0565918 -0.203512)
(8.66237e-07 -6.43099e-09 4.99791e-07 -6.84613e-07 -0.0253051 0.00339622 -9.38209e-07 0.0566379 -0.20352)
(-1.59399e-07 -5.8349e-06 3.1671e-06 -1.02825e-06 -0.0252814 0.00340081 9.90481e-07 0.0565905 -0.203513)
(-9.38688e-07 -4.64315e-07 -1.0453e-06 -2.93593e-06 -0.0252891 0.00340086 -2.65796e-06 0.0565811 -0.203484)
(-1.88162e-06 1.63911e-06 -1.59403e-06 -1.87186e-06 -0.0252862 0.00340441 -1.03208e-05 0.0565857 -0.203514)
(-1.51485e-06 2.5056e-06 1.13393e-06 3.0011e-06 -0.0252866 0.00340429 -2.67377e-05 0.0565969 -0.20351)
(-5.8767e-08 4.20595e-07 8.89173e-08 3.22058e-06 -0.0252647 0.00338781 -3.11561e-05 0.0566936 -0.203511)
(-1.04787e-06 -1.36195e-06 -1.3268e-06 -1.09593e-06 -0.0252834 0.00340122 -4.60197e-05 0.056598 -0.203517)
(-1.62822e-06 1.80357e-07 2.92192e-07 -2.14942e-06 -0.0252679 0.00340865 -5.89916e-05 0.0565874 -0.20351)
(-3.16155e-06 3.19575e-06 1.01812e-06 1.74054e-06 -0.0252445 0.00338213 -4.18158e-05 0.0566802 -0.203498)
(-2.69654e-05 -8.96107e-06 4.10953e-06 -8.0581e-07 -0.0253071 0.00340836 -7.89923e-05 0.0566274 -0.203497)
(-0.000236384 -0.00012267 -9.60502e-05 -5.02416e-05 -0.0252892 0.00340666 -0.000335587 0.0564937 -0.203419)
(-0.00195066 -0.00055879 -0.000909759 -0.000260318 -0.0249525 0.00330279 -0.00242844 0.0555224 -0.203756)
(-0.0177671 -0.000669512 0.00487208 -0.000873562 -0.023581 0.0028549 -0.0220163 0.0507037 -0.205722)
(-0.0860718 0.00310899 0.112081 -0.00666123 -0.0220305 0.00482588 -0.21282 0.0479386 -0.152257)
(-0.0887492 -0.00259429 -0.115965 0.00539013 -0.0139535 0.00256056 0.220224 0.0303837 -0.151242)
(-0.0183668 0.000425807 -0.00501441 0.000791745 -0.0148853 0.000987208 0.0229351 0.031778 -0.206538)
(-0.00203203 0.00041425 0.000954499 0.000225132 -0.0159425 0.00130355 0.00267945 0.0350759 -0.204476)
(-0.000259559 9.70783e-05 0.000102132 5.02767e-05 -0.0161957 0.00135331 0.000370729 0.0360835 -0.204174)
(-3.13341e-05 1.22289e-05 -5.98529e-06 3.60082e-06 -0.0161845 0.00135424 0.000105697 0.0361643 -0.204243)
(-4.29136e-06 -1.79524e-06 -1.40137e-06 -3.08186e-06 -0.0162024 0.00134726 6.19479e-05 0.0363309 -0.20428)
(-1.65935e-06 -5.90734e-06 1.67646e-06 -1.77712e-06 -0.0161575 0.00134529 4.60279e-05 0.0361856 -0.204259)
(-1.8125e-06 2.55323e-06 -4.20784e-07 5.638e-07 -0.0161977 0.00135686 4.64143e-05 0.0361502 -0.204266)
(-1.03621e-06 -2.3304e-06 7.25883e-07 -8.99475e-07 -0.01619 0.0013486 2.24984e-05 0.0363008 -0.204278)
(-1.8475e-07 -4.29369e-06 9.86724e-07 -1.45436e-06 -0.0161901 0.00134784 6.02941e-06 0.0360575 -0.204253)
(-9.17122e-07 -6.28452e-07 4.80193e-07 -2.55263e-06 -0.0161695 0.00134772 1.81043e-05 0.0361385 -0.204255)
(-1.48474e-06 1.07916e-06 -1.60133e-06 -6.64243e-07 -0.0161921 0.00135143 2.09959e-05 0.03605 -0.204228)
(8.16405e-08 5.12673e-06 -1.53545e-06 4.46462e-06 -0.01621 0.00135035 -1.64754e-06 0.0360737 -0.204253)
(3.29757e-07 -2.51668e-07 1.69954e-06 1.88833e-06 -0.01621 0.00135967 3.85058e-06 0.0361748 -0.204264)
(-8.98217e-07 -4.05174e-06 9.46769e-07 -1.01508e-06 -0.0161964 0.00135195 9.81197e-07 0.0361464 -0.20426)
(-5.55281e-08 2.62862e-06 -1.05065e-06 1.09772e-06 -0.0161942 0.00135281 -5.30487e-06 0.0360526 -0.20425)
(5.57478e-07 1.32691e-06 -3.2046e-08 3.70698e-07 -0.0162101 0.00136048 -1.72332e-06 0.0361711 -0.204265)
(-3.48426e-07 -5.07354e-06 1.93109e-06 -3.32742e-06 -0.0161956 0.0013518 -6.866e-07 0.0361488 -0.204262)
(-7.83097e-07 -9.26149e-07 -5.65863e-07 -2.04497e-06 -0.0161931 0.00134278 -5.34778e-06 0.0360597 -0.20423)
(-1.55069e-06 2.17e-06 -8.39714e-07 4.74801e-07 -0.0162023 0.00135723 -1.10775e-05 0.0361399 -0.204261)
(-1.1904e-06 3.57583e-06 -1.01269e-06 2.34584e-06 -0.0162052 0.00135548 -3.89391e-05 0.0361474 -0.204242)
(1.04624e-07 8.68689e-07 -5.03774e-07 2.75978e-06 -0.0161864 0.00134518 -2.81808e-05 0.0361769 -0.204264)
(-1.50423e-06 -6.32893e-07 1.28297e-06 -3.31581e-07 -0.0161962 0.0013516 -1.46992e-05 0.0361528 -0.204267)
(-1.88753e-06 2.58141e-06 -1.89566e-06 -1.22306e-06 -0.0161872 0.00135129 -5.90206e-05 0.0362028 -0.204246)
(-3.20262e-06 -2.36678e-07 7.78436e-07 1.06288e-06 -0.0161786 0.00133941 -5.67801e-05 0.0362193 -0.204259)
(-3.2306e-05 -1.21887e-05 7.40874e-06 -4.39112e-06 -0.0162155 0.00135887 -8.3021e-05 0.0361638 -0.204241)
(-0.00026094 -9.48853e-05 -0.000102864 -4.98348e-05 -0.0161913 0.00135359 -0.000392874 0.0359664 -0.204132)
(-0.00203162 -0.000410884 -0.000955583 -0.000222191 -0.0159509 0.00130894 -0.00268304 0.0350888 -0.204493)
(-0.0183637 -0.000424443 0.00501524 -0.000790365 -0.0148851 0.000988626 -0.0229414 0.0317736 -0.206536)
(-0.0887483 0.00259751 0.115938 -0.00539123 -0.0139412 0.00255307 -0.220171 0.0305216 -0.151245)
(-0.0904061 -0.00185878 -0.118795 0.00378764 -0.00882295 0.0012423 0.225621 0.0192418 -0.150964)
(-0.018803 0.000268708 -0.00512188 0.000627024 -0.00930079 0.000147419 0.0237034 0.0198408 -0.207532)
(-0.00209887 0.000299509 0.000982732 0.000175811 -0.0101023 0.000349062 0.00288051 0.022282 -0.20547)
(-0.000279113 7.4578e-05 0.000105929 4.19136e-05 -0.0103149 0.00037696 0.000448589 0.0229628 -0.205149)
(-3.66423e-05 9.5236e-06 -5.68828e-06 4.08657e-06 -0.0103224 0.000376598 0.000111113 0.0231507 -0.205216)
(-4.85826e-06 -5.87659e-08 -2.62915e-06 -1.90637e-06 -0.0103398 0.000383435 4.50244e-05 0.0230593 -0.205247)
(-1.28469e-06 -3.71437e-06 1.5098e-06 -1.71441e-06 -0.0103041 0.000370682 4.56091e-05 0.0231508 -0.205232)
(-1.85462e-06 -1.79281e-06 1.65251e-07 -9.10356e-07 -0.0103214 0.000377417 4.49658e-05 0.0230247 -0.205244)
(-1.00114e-06 -1.43141e-07 -2.69186e-07 -2.3415e-07 -0.010331 0.000377984 8.00289e-06 0.0230415 -0.205247)
(-2.37385e-07 -3.07966e-07 8.29513e-07 -8.8409e-08 -0.0102996 0.00037272 2.00599e-05 0.0230267 -0.205241)
(-1.25809e-06 -1.04762e-06 2.30969e-07 -2.3938e-06 -0.0103096 0.000371953 1.55641e-05 0.0231357 -0.205249)
(-7.20562e-07 -1.66018e-06 -4.6682e-07 -1.77385e-06 -0.010305 0.000370314 -8.32329e-06 0.023025 -0.205231)
(6.53684e-07 2.4384e-06 9.94474e-08 3.23923e-06 -0.010306 0.000378815 1.59653e-05 0.0229523 -0.205226)
(-3.86685e-07 -2.67607e-07 9.77035e-07 1.30201e-06 -0.0103284 0.000380205 1.90552e-05 0.0230399 -0.20524)
(-1.03364e-06 -1.39151e-06 -3.05461e-08 -4.36687e-07 -0.0103211 0.000375012 -1.33108e-05 0.0230218 -0.205239)
(2.65358e-07 1.65091e-06 -3.35466e-07 1.16824e-06 -0.0103029 0.000374405 -4.14148e-06 0.0230231 -0.205235)
(-1.87915e-08 -2.83264e-07 2.98747e-07 -3.45394e-07 -0.0103284 0.00038027 1.21794e-05 0.0230371 -0.205241)
(-6.42531e-07 -2.44235e-06 -3.72168e-07 -2.75941e-06 -0.0103204 0.000375775 -1.73936e-05 0.0230236 -0.20524)
(-1.78245e-07 -1.80334e-06 3.88857e-08 -2.08469e-06 -0.0103064 0.000366747 -6.94479e-06 0.023029 -0.205237)
(-1.00346e-06 -7.85118e-07 9.45925e-07 -1.01403e-06 -0.0103169 0.000376219 3.11326e-06 0.0229354 -0.205229)
(-1.05785e-06 5.68785e-06 -1.27445e-06 3.89683e-06 -0.0103238 0.000372404 -2.20044e-05 0.0229504 -0.205213)
(-5.9425e-07 2.22066e-06 -6.87752e-07 3.62267e-06 -0.0103216 0.000378352 -2.54441e-05 0.0231564 -0.205253)
(-1.84444e-06 -1.51313e-06 -1.05852e-07 -1.23294e-06 -0.0103206 0.000375924 -4.41629e-05 0.0230272 -0.205246)
(-1.34933e-06 3.71125e-06 -2.14424e-06 2.89883e-07 -0.010313 0.000371848 -5.84395e-05 0.0230485 -0.205238)
(-3.79516e-06 -2.47234e-06 2.5347e-06 -2.69529e-07 -0.0103087 0.000375596 -4.1318e-05 0.0230831 -0.205238)
(-3.71449e-05 -1.15056e-05 6.94433e-06 -6.01785e-06 -0.0103249 0.00037775 -0.00010291 0.0229477 -0.205209)
(-0.000279944 -6.97511e-05 -0.000106037 -3.84245e-05 -0.0103031 0.000368388 -0.000454181 0.0229549 -0.205114)
(-0.00209876 -0.00029754 -0.000982751 -0.000173751 -0.0101077 0.000356237 -0.00287298 0.0222822 -0.205465)
(-0.0188009 -0.000267566 0.00512091 -0.000627338 -0.00930171 0.000150466 -0.0237086 0.0198337 -0.207528)
(-0.0904011 0.00186486 0.11878 -0.00379606 -0.00882984 0.00124019 -0.225596 0.0192669 -0.150969)
(-0.0914244 -0.00121473 -0.120665 0.00243979 -0.00557033 0.000651048 0.229188 0.0121516 -0.150942)
(-0.0190892 0.000169941 -0.00519306 0.000451839 -0.00577106 -5.27438e-05 0.0242994 0.0123523 -0.208326)
(-0.00214905 0.000211433 0.00100041 0.000132761 -0.00638095 7.36049e-05 0.00303797 0.0141572 -0.206273)
(-0.000293904 5.30602e-05 0.00010764 3.03229e-05 -0.00653944 9.05352e-05 0.000470956 0.0145621 -0.205945)
(-4.00981e-05 7.24226e-06 -4.69033e-06 3.65228e-06 -0.00656093 8.89447e-05 0.00011463 0.0146395 -0.206011)
(-5.45156e-06 1.86518e-06 -2.58469e-06 2.24072e-07 -0.00655981 9.75443e-05 5.70573e-05 0.0146358 -0.206044)
(-1.46014e-06 -2.23192e-06 4.72845e-07 -1.7353e-06 -0.0065543 9.07401e-05 4.30798e-05 0.0147336 -0.206052)
(-1.51645e-06 -2.84281e-06 1.03959e-06 -1.29547e-06 -0.00654781 9.00444e-05 3.07485e-05 0.0146157 -0.206045)
(-8.71816e-07 2.03099e-06 -2.13498e-07 1.18191e-06 -0.00655368 9.49863e-05 2.23799e-05 0.0146241 -0.206045)
(-6.1668e-07 -1.24222e-08 -2.19344e-07 -4.67098e-07 -0.0065405 9.17053e-05 1.96494e-05 0.0147139 -0.20605)
(-1.25421e-06 -1.71149e-06 -1.05355e-09 -2.64785e-06 -0.00655165 9.05244e-05 1.3124e-05 0.0146249 -0.206044)
(-3.58135e-07 1.80597e-06 -2.29059e-07 9.79122e-07 -0.00653606 8.53777e-05 -7.96067e-06 0.0146407 -0.206039)
(6.96812e-07 4.60013e-07 4.42792e-07 1.8143e-06 -0.00652949 8.91446e-05 4.40812e-06 0.0147239 -0.206041)
(-4.05426e-07 -3.27661e-06 9.39013e-07 -1.42419e-06 -0.00655132 9.09862e-05 1.84855e-05 0.014626 -0.206041)
(-9.2497e-07 1.04767e-06 -2.13269e-07 7.62527e-07 -0.0065487 8.76875e-05 4.64631e-07 0.0146133 -0.206041)
(-3.72693e-08 1.16704e-06 1.01444e-09 1.05769e-06 -0.00654176 8.99803e-05 -3.04107e-06 0.0147121 -0.206047)
(-2.28052e-07 -2.18163e-06 2.42105e-07 -1.5642e-06 -0.00655133 9.06086e-05 -2.23379e-06 0.0146235 -0.206042)
(-6.96286e-07 -6.68164e-07 -7.73605e-07 -1.70371e-06 -0.00654737 8.90458e-05 -4.77981e-06 0.0146154 -0.206041)
(-4.34021e-07 -2.23418e-07 -4.77051e-07 -6.83297e-07 -0.00654112 8.77357e-05 -2.12981e-05 0.0146374 -0.206041)
(-3.54389e-07 -1.30103e-06 2.91758e-07 -1.2602e-06 -0.00653164 8.59717e-05 -2.55783e-05 0.014614 -0.206034)
(-2.63055e-07 2.64687e-06 -5.86131e-07 2.23683e-06 -0.0065281 8.1508e-05 -5.85636e-06 0.0145495 -0.206031)
(-9.21332e-07 1.51059e-06 2.00215e-07 2.99261e-06 -0.00655882 9.39107e-05 -9.06125e-06 0.0146366 -0.206045)
(-2.17079e-06 1.08255e-06 -1.78445e-08 6.40097e-07 -0.00654733 9.01946e-05 -3.07061e-05 0.0146181 -0.206046)
(-1.69485e-06 4.95497e-06 -1.96125e-06 2.3314e-06 -0.00654773 9.14584e-05 -5.7233e-05 0.0147281 -0.206052)
(-4.46417e-06 -2.61757e-06 1.95876e-06 -9.00852e-07 -0.00654369 9.49409e-05 -6.81832e-05 0.0147407 -0.206043)
(-3.9937e-05 -1.10681e-05 5.96703e-06 -7.26932e-06 -0.00653574 8.83919e-05 -9.50166e-05 0.0146198 -0.206012)
(-0.000294486 -5.14459e-05 -0.000107166 -2.88623e-05 -0.00653439 8.16722e-05 -0.00045862 0.0145782 -0.205936)
(-0.0021494 -0.000210609 -0.000999167 -0.000130913 -0.00638523 7.61683e-05 -0.0030436 0.0141562 -0.206265)
(-0.0190881 -0.000168874 0.00519203 -0.000451822 -0.00577317 -5.33405e-05 -0.0243068 0.012351 -0.208302)
(-0.0914208 0.00122028 0.120656 -0.00244795 -0.00557457 0.000655388 -0.229174 0.012165 -0.150947)
(-0.0920512 -0.000749591 -0.121823 0.00148849 -0.00351694 0.000378963 0.231398 0.00765339 -0.150968)
(-0.0192644 0.000106584 -0.00523737 0.000302291 -0.00357586 -5.2586e-05 0.0246975 0.00768524 -0.208851)
(-0.00218317 0.000145834 0.00101139 9.81386e-05 -0.00402923 2.73765e-05 0.00315692 0.00885753 -0.206801)
(-0.000304935 3.85822e-05 0.000108997 2.28628e-05 -0.00414066 3.57246e-05 0.000498237 0.00921338 -0.206484)
(-4.26621e-05 5.44868e-06 -4.28646e-06 3.15571e-06 -0.00415823 3.54456e-05 0.000115825 0.00927067 -0.206566)
(-5.93577e-06 1.26813e-06 -2.27009e-06 4.82583e-07 -0.00415687 3.80584e-05 5.66637e-05 0.00927007 -0.206584)
(-1.5886e-06 -1.31399e-06 9.82743e-09 -1.31761e-06 -0.00416217 4.04648e-05 4.14911e-05 0.00927621 -0.206589)
(-1.27117e-06 -1.67013e-06 1.01449e-06 -8.04781e-07 -0.00414935 3.51385e-05 3.04806e-05 0.00925754 -0.206588)
(-8.35465e-07 1.3186e-06 6.29817e-08 4.57204e-07 -0.00415264 3.71061e-05 2.32155e-05 0.00926222 -0.206586)
(-1.00334e-06 9.97254e-08 -6.28619e-08 -4.47658e-07 -0.00415613 3.82826e-05 1.92122e-05 0.00926981 -0.206573)
(-9.6885e-07 -1.60163e-07 -1.03455e-06 -9.0774e-07 -0.00415185 3.88814e-05 -1.77667e-06 0.00926365 -0.206584)
(1.71866e-07 2.77013e-06 -7.42777e-07 1.87009e-06 -0.00414052 3.39773e-05 6.43451e-06 0.00927117 -0.206579)
(1.73023e-07 -6.12763e-07 1.22115e-06 5.95798e-07 -0.00415276 3.67216e-05 1.87106e-05 0.00936103 -0.206588)
(-5.97039e-07 -4.10794e-06 6.85612e-07 -2.60953e-06 -0.00415125 3.53017e-05 3.91738e-06 0.0092653 -0.206583)
(-5.37262e-07 5.20228e-07 -2.31729e-07 8.64515e-08 -0.00415347 3.44829e-05 5.45879e-07 0.00925444 -0.206584)
(-1.99986e-07 1.12304e-06 2.48746e-07 1.09986e-06 -0.00415568 3.56673e-05 -2.26436e-06 0.00926996 -0.206573)
(-5.71071e-07 -1.40456e-06 1.11857e-07 -8.81516e-07 -0.00415086 3.4864e-05 -3.04306e-06 0.00926319 -0.206586)
(-4.66351e-07 -4.00317e-07 -9.4674e-07 -1.57729e-06 -0.00414993 3.30469e-05 -1.85166e-05 0.00925815 -0.206584)
(-8.95441e-08 1.34276e-06 -5.75935e-07 7.03041e-07 -0.00413792 3.31995e-05 -7.73944e-06 0.00920181 -0.206559)
(-4.19436e-07 1.81984e-06 -2.99608e-07 1.69002e-06 -0.00414788 3.39626e-05 -1.24702e-05 0.00934294 -0.206586)
(-2.0729e-07 2.49974e-07 3.13338e-07 7.79401e-07 -0.00413094 3.0404e-05 -1.79584e-05 0.00935422 -0.206586)
(-9.13596e-07 -1.62573e-06 1.04956e-06 8.21142e-08 -0.004156 3.99267e-05 -8.0248e-06 0.00927045 -0.206585)
(-1.97668e-06 7.05112e-07 -5.96296e-07 4.40434e-07 -0.00414916 3.57785e-05 -3.03368e-05 0.00925991 -0.206588)
(-1.65752e-06 4.43883e-06 -1.19498e-06 2.83271e-06 -0.00415939 3.84274e-05 -4.22671e-05 0.00927483 -0.206588)
(-5.71531e-06 -7.32355e-08 1.92139e-06 5.07724e-07 -0.00416202 4.25922e-05 -5.48109e-05 0.00936789 -0.206586)
(-4.27372e-05 -9.64521e-06 4.29059e-06 -7.11609e-06 -0.0041472 3.47358e-05 -0.000127058 0.00934625 -0.206565)
(-0.000304673 -3.9649e-05 -0.000108481 -2.37675e-05 -0.0041303 2.98648e-05 -0.000499216 0.00914621 -0.206468)
(-0.00218335 -0.000145296 -0.00100975 -9.635e-05 -0.00403207 2.67635e-05 -0.00314713 0.00885584 -0.206792)
(-0.0192643 -0.000105436 0.00523675 -0.000301607 -0.00357657 -5.68545e-05 -0.024701 0.00768512 -0.208847)
(-0.0920497 0.000754183 0.12182 -0.00149477 -0.00351753 0.000383361 -0.231393 0.00766198 -0.150972)
(-0.0924363 -0.000446691 -0.122513 0.000879553 -0.00222715 0.0002344 0.232714 0.00480294 -0.150993)
(-0.0193672 6.74841e-05 -0.00526338 0.000192539 -0.0022237 -2.59167e-05 0.0249543 0.00478153 -0.209173)
(-0.00220494 9.84735e-05 0.00101807 7.05246e-05 -0.00254226 2.43716e-05 0.00324348 0.00556185 -0.207132)
(-0.0003129 2.726e-05 0.000109253 1.67617e-05 -0.00262729 2.72491e-05 0.000519198 0.00581598 -0.206823)
(-4.45741e-05 4.00016e-06 -4.22358e-06 2.48861e-06 -0.00264517 2.63807e-05 0.000120633 0.00586054 -0.206896)
(-6.34622e-06 1.07641e-06 -1.58086e-06 9.05325e-07 -0.00264058 2.73257e-05 5.64192e-05 0.00585838 -0.206925)
(-1.71762e-06 -7.27346e-07 -1.11138e-07 -8.56715e-07 -0.00264324 3.14898e-05 4.02684e-05 0.00586053 -0.206928)