/*--------------------------------*- C++ -*----------------------------------*\
| =========                 |                                                 |
| \\      /  F ield         | OpenFOAM: The Open Source CFD Toolbox           |
|  \\    /   O peration     | Version:  2106                                  |
|   \\  /    A nd           | Website:  www.openfoam.com                      |
|    \\/     M anipulation  |                                                 |
\*---------------------------------------------------------------------------*/
FoamFile
{
    version     2.0;
    format      ascii;
    arch        "LSB;label=32;scalar=64";
    class       volVectorField;
    location    "482";
    object      D;
}
// * * * * * * * * * * * * * * * * * * * * * * * * * * * * * * * * * * * * * //

dimensions      [0 1 0 0 0 0 0];

internalField   nonuniform List<vector> 
9000
(
(-0.0002098 -0.000239679 -0.000483141)
(-6.21002e-05 -0.000420253 -0.000736038)
(5.2128e-05 -0.000385532 -0.000567701)
(6.61467e-05 -0.000159687 -0.000228907)
(3.39247e-06 -1.13958e-05 -8.95344e-06)
(-8.24114e-05 -1.85773e-05 -1.94457e-05)
(-0.000140455 -0.000169395 -0.000277118)
(-8.02884e-05 -0.000351427 -0.000603197)
(2.3581e-05 -0.000438778 -0.000582964)
(7.56909e-05 -0.000373053 -0.00041342)
(6.81689e-05 -0.000201298 -0.000202124)
(5.12929e-06 -9.98446e-05 -0.000103435)
(-4.35144e-05 -0.000147535 -0.000199723)
(-1.04396e-05 -0.000241809 -0.000328759)
(1.03768e-05 -0.000249781 -0.000298077)
(-3.79535e-05 -0.000277125 -0.000324981)
(-4.56174e-05 -0.000355667 -0.000463227)
(1.25859e-05 -0.000369139 -0.000487721)
(6.82995e-05 -0.000319541 -0.000368643)
(6.67313e-05 -0.000148718 -0.00015135)
(-1.8798e-05 -6.52152e-05 -6.58212e-05)
(-9.87647e-05 -0.000183924 -0.000280903)
(-4.43123e-05 -0.000316898 -0.00058634)
(5.56697e-05 -0.0003682 -0.000520389)
(8.66345e-05 -0.000292388 -0.000370136)
(7.84155e-05 -0.000187956 -0.000238521)
(2.72128e-05 -0.000147525 -0.00019231)
(-1.77752e-05 -0.000217279 -0.000300807)
(1.19193e-05 -0.000240189 -0.000357343)
(1.02371e-05 2.19653e-05 -3.31386e-05)
(-0.000121464 -0.000112111 -0.000238479)
(-4.8533e-05 -0.000180538 -0.000373929)
(1.06964e-05 -0.000205187 -0.000286689)
(1.7923e-05 -9.57959e-05 -0.000110149)
(-1.43519e-05 -2.24161e-05 7.01855e-06)
(-5.86792e-05 -2.64341e-05 2.40464e-06)
(-9.05329e-05 -8.83988e-05 -0.000135754)
(-5.09937e-05 -0.000158979 -0.000304079)
(1.05323e-05 -0.000256628 -0.000293474)
(4.28497e-05 -0.000247339 -0.000209747)
(4.15309e-05 -0.00014924 -9.48168e-05)
(3.46528e-06 -8.09413e-05 -4.232e-05)
(-2.57438e-05 -9.62594e-05 -9.85678e-05)
(4.88306e-07 -0.000144476 -0.000166365)
(1.37785e-05 -0.00016423 -0.000142636)
(-2.41655e-05 -0.000181467 -0.000155253)
(-3.39421e-05 -0.000211422 -0.000234576)
(2.60589e-06 -0.000220712 -0.000253477)
(3.98853e-05 -0.000208575 -0.00019081)
(4.26774e-05 -0.000112303 -7.04007e-05)
(-6.81749e-06 -5.63939e-05 -2.12806e-05)
(-5.65882e-05 -0.000101219 -0.000132898)
(-2.26871e-05 -0.000129322 -0.00029275)
(4.03567e-05 -0.000206571 -0.000255735)
(6.07515e-05 -0.000183296 -0.000177368)
(6.07038e-05 -0.000122718 -0.000111899)
(2.91544e-05 -9.74411e-05 -9.56205e-05)
(-7.87395e-06 -0.000128507 -0.000163113)
(-5.31439e-06 -0.000132946 -0.000196589)
(-3.6578e-05 2.01781e-05 2.43248e-05)
(-2.2655e-05 -7.16227e-05 -7.57602e-05)
(-3.5207e-05 -0.000102295 -0.000161432)
(-3.04083e-05 -0.00013841 -0.000132712)
(-2.75923e-05 -7.87157e-05 -4.65283e-05)
(-3.06797e-05 -3.69901e-05 1.31715e-05)
(-3.43671e-05 -4.04074e-05 1.19917e-05)
(-4.01042e-05 -6.66818e-05 -5.47925e-05)
(-2.42412e-05 -9.98205e-05 -0.000129776)
(-5.84836e-06 -0.000186945 -0.000143228)
(1.17226e-05 -0.000187191 -0.000119469)
(1.93462e-05 -0.000129372 -5.21531e-05)
(4.16619e-06 -8.1724e-05 -1.6506e-05)
(-8.49996e-06 -8.32569e-05 -4.77173e-05)
(9.94528e-06 -0.000108738 -8.39297e-05)
(1.65066e-05 -0.000133314 -6.80388e-05)
(-1.04612e-05 -0.000145739 -7.33714e-05)
(-2.22118e-05 -0.000154518 -0.000117779)
(-8.37498e-06 -0.000162855 -0.000133919)
(1.27733e-05 -0.000154823 -0.000111522)
(2.26862e-05 -9.91515e-05 -3.85614e-05)
(7.0244e-06 -6.17641e-05 -9.16803e-07)
(-1.34767e-05 -7.89949e-05 -4.89884e-05)
(-2.71726e-06 -7.55947e-05 -0.000116896)
(2.19001e-05 -0.000150562 -0.000111909)
(3.51494e-05 -0.000145474 -8.10095e-05)
(4.42099e-05 -0.000103862 -5.0653e-05)
(3.05239e-05 -8.57982e-05 -4.70354e-05)
(1.07642e-06 -9.48958e-05 -9.59513e-05)
(-1.70953e-05 -9.21601e-05 -0.000118367)
(-7.61878e-05 3.07941e-06 7.57244e-05)
(6.62712e-05 -7.53187e-05 3.47374e-05)
(-2.19134e-05 -9.69913e-05 -3.22087e-05)
(-6.23223e-05 -0.000122285 -3.94986e-05)
(-6.35433e-05 -7.96341e-05 -9.92418e-06)
(-4.30957e-05 -4.8394e-05 1.28168e-05)
(-1.37087e-05 -5.21151e-05 1.35798e-05)
(1.91856e-06 -7.03825e-05 -5.9039e-06)
(-2.04245e-06 -0.000101198 -2.43472e-05)
(-1.76316e-05 -0.000166846 -5.36347e-05)
(-1.20953e-05 -0.000154256 -6.55664e-05)
(2.01499e-06 -0.000117973 -3.10713e-05)
(5.63618e-06 -8.55083e-05 -5.87763e-06)
(6.26335e-06 -8.23534e-05 -1.93098e-05)
(1.71129e-05 -9.84501e-05 -3.47363e-05)
(1.81446e-05 -0.000123074 -2.62151e-05)
(1.48048e-06 -0.000133691 -2.69498e-05)
(-1.16514e-05 -0.000136156 -4.7093e-05)
(-1.65875e-05 -0.000142112 -6.16931e-05)
(-9.21647e-06 -0.000124012 -6.35017e-05)
(6.35539e-06 -9.0763e-05 -2.3185e-05)
(1.80385e-05 -6.88225e-05 7.27695e-06)
(2.13655e-05 -8.25242e-05 2.34241e-07)
(1.3288e-05 -8.23794e-05 -1.05832e-05)
(6.66926e-06 -0.000141215 -2.604e-05)
(1.46398e-05 -0.000135342 -2.61764e-05)
(3.09607e-05 -0.000100021 -1.78296e-05)
(3.17086e-05 -8.59325e-05 -2.17829e-05)
(8.93115e-06 -8.28106e-05 -5.89161e-05)
(-2.4756e-05 -7.78873e-05 -7.5172e-05)
(-0.000108576 -2.16663e-05 0.000112251)
(0.000133168 -9.45817e-05 0.000104206)
(-9.88345e-06 -0.000114094 4.28547e-05)
(-8.17373e-05 -0.000121584 1.6699e-05)
(-8.706e-05 -8.1487e-05 1.0716e-05)
(-5.07501e-05 -5.21026e-05 1.00294e-05)
(1.26716e-06 -5.60875e-05 1.19874e-05)
(3.14938e-05 -7.94548e-05 2.27793e-05)
(1.456e-05 -0.000120941 3.67682e-05)
(-2.23053e-05 -0.00016258 1.75385e-06)
(-2.67073e-05 -0.000133646 -2.6116e-05)
(-1.04116e-05 -0.000105832 -1.63791e-05)
(6.83688e-06 -8.33321e-05 -1.12868e-06)
(1.73185e-05 -8.0913e-05 -1.4791e-06)
(2.17555e-05 -9.54981e-05 -2.80669e-06)
(1.87321e-05 -0.00011682 -2.59286e-07)
(1.05911e-05 -0.00012711 1.91594e-06)
(-3.12901e-06 -0.000131022 -1.4259e-06)
(-2.08725e-05 -0.000132825 -1.40679e-05)
(-2.4535e-05 -0.000103802 -2.72327e-05)
(-6.56822e-06 -8.02153e-05 -1.20726e-05)
(2.40034e-05 -6.94741e-05 9.91532e-06)
(4.40314e-05 -9.01664e-05 2.7196e-05)
(2.43583e-05 -0.000106276 4.95442e-05)
(-2.61437e-06 -0.000144612 2.45287e-05)
(1.3483e-06 -0.000130469 7.28075e-06)
(2.18262e-05 -9.60125e-05 2.18633e-06)
(3.27199e-05 -8.30383e-05 -8.29579e-06)
(1.54095e-05 -7.47948e-05 -3.69116e-05)
(-2.85775e-05 -7.11636e-05 -4.88318e-05)
(-0.000132669 -4.61932e-05 0.000132801)
(0.000173549 -0.000114135 0.000141424)
(-7.04632e-07 -0.000128105 7.95567e-05)
(-8.91976e-05 -0.000120189 4.83391e-05)
(-9.84011e-05 -7.77643e-05 2.31378e-05)
(-5.39456e-05 -4.78568e-05 9.01916e-06)
(1.02159e-05 -5.2385e-05 1.18949e-05)
(4.81215e-05 -8.47798e-05 3.87816e-05)
(2.54859e-05 -0.000137736 6.72662e-05)
(-2.08703e-05 -0.000159157 3.50803e-05)
(-3.29141e-05 -0.000119084 4.60798e-06)
(-1.80003e-05 -9.2209e-05 -2.72339e-06)
(7.39615e-06 -7.45172e-05 3.61951e-06)
(2.41067e-05 -7.61489e-05 1.15415e-05)
(2.41186e-05 -9.25399e-05 1.85015e-05)
(1.86249e-05 -0.000108644 1.72895e-05)
(1.64111e-05 -0.000119051 2.10068e-05)
(2.90503e-06 -0.00012764 2.77399e-05)
(-2.18823e-05 -0.000125379 1.82009e-05)
(-3.34381e-05 -8.96166e-05 2.12238e-06)
(-1.60227e-05 -6.7734e-05 -7.13158e-07)
(2.49318e-05 -6.26548e-05 1.23847e-05)
(5.45394e-05 -9.24003e-05 4.06948e-05)
(3.05532e-05 -0.000125188 7.77309e-05)
(-5.82432e-06 -0.000145268 5.23284e-05)
(-4.87862e-06 -0.000122856 2.90294e-05)
(1.68834e-05 -8.79057e-05 1.66015e-05)
(3.35466e-05 -7.39005e-05 1.14299e-06)
(2.02711e-05 -6.47063e-05 -2.24383e-05)
(-2.83705e-05 -6.43861e-05 -3.23962e-05)
(-0.00014486 -6.54647e-05 0.000140151)
(0.000188513 -0.000128212 0.000154751)
(4.86285e-06 -0.000130644 9.07796e-05)
(-8.73826e-05 -0.000113622 6.42952e-05)
(-9.98068e-05 -6.96066e-05 3.24751e-05)
(-5.35437e-05 -3.88822e-05 1.22164e-05)
(1.38762e-05 -4.48404e-05 1.56191e-05)
(5.3894e-05 -8.56456e-05 4.74474e-05)
(3.14685e-05 -0.000144638 7.80768e-05)
(-1.5629e-05 -0.000152424 5.42781e-05)
(-3.28949e-05 -0.000108562 2.83866e-05)
(-2.11947e-05 -7.92679e-05 1.09662e-05)
(7.34369e-06 -6.31856e-05 1.08275e-05)
(2.69702e-05 -6.99394e-05 2.19488e-05)
(2.47702e-05 -8.79081e-05 3.28232e-05)
(1.81681e-05 -9.83937e-05 3.038e-05)
(1.90969e-05 -0.00010876 3.46243e-05)
(6.43491e-06 -0.000122236 4.5667e-05)
(-2.08411e-05 -0.000117575 3.98728e-05)
(-3.72251e-05 -8.01224e-05 2.55283e-05)
(-2.2061e-05 -5.58556e-05 1.1566e-05)
(2.21727e-05 -5.22044e-05 1.74471e-05)
(5.52851e-05 -8.82198e-05 4.73715e-05)
(3.27599e-05 -0.000132155 8.57573e-05)
(-4.33999e-06 -0.000139463 6.64404e-05)
(-5.53599e-06 -0.000112434 4.42981e-05)
(1.5566e-05 -7.76847e-05 2.83853e-05)
(3.43391e-05 -6.1886e-05 1.05393e-05)
(2.345e-05 -5.38445e-05 -1.15416e-05)
(-2.53057e-05 -5.63469e-05 -2.18405e-05)
(-0.000147964 -7.79775e-05 0.000137837)
(0.000182381 -0.000135625 0.000150808)
(6.6436e-06 -0.000121465 8.76706e-05)
(-7.98099e-05 -0.000102368 7.04386e-05)
(-9.41275e-05 -5.96617e-05 3.99845e-05)
(-5.05546e-05 -2.95073e-05 1.94226e-05)
(1.35774e-05 -3.75083e-05 2.25526e-05)
(5.20303e-05 -8.31938e-05 5.15199e-05)
(3.36093e-05 -0.000141477 7.80784e-05)
(-8.94132e-06 -0.000142647 6.42711e-05)
(-2.88956e-05 -0.000100752 4.46409e-05)
(-2.08199e-05 -6.84545e-05 2.37712e-05)
(6.90707e-06 -5.34091e-05 1.9667e-05)
(2.68715e-05 -6.36379e-05 3.02747e-05)
(2.42661e-05 -8.19202e-05 4.21006e-05)
(1.75241e-05 -8.78819e-05 4.05651e-05)
(1.92566e-05 -9.78076e-05 4.4711e-05)
(7.76092e-06 -0.000114379 5.58069e-05)
(-1.88776e-05 -0.000109292 5.33224e-05)
(-3.73115e-05 -7.3948e-05 4.1901e-05)
(-2.5055e-05 -4.61271e-05 2.35827e-05)
(1.73217e-05 -4.24121e-05 2.45563e-05)
(4.96451e-05 -8.00817e-05 5.08835e-05)
(3.21149e-05 -0.000127504 8.3235e-05)
(-1.69555e-07 -0.000128522 7.25825e-05)
(-2.48028e-06 -0.00010128 5.50505e-05)
(1.69377e-05 -6.75593e-05 3.85008e-05)
(3.5315e-05 -5.10703e-05 2.00954e-05)
(2.55649e-05 -4.41782e-05 -2.95508e-06)
(-2.05881e-05 -4.80264e-05 -1.48348e-05)
(-0.000144762 -8.3231e-05 0.000129409)
(0.000161003 -0.000136086 0.000134439)
(5.05183e-06 -0.000104335 7.85557e-05)
(-6.97627e-05 -8.78655e-05 7.04789e-05)
(-8.42121e-05 -4.92502e-05 4.59286e-05)
(-4.60321e-05 -2.27014e-05 2.84537e-05)
(1.0935e-05 -3.23609e-05 3.04329e-05)
(4.58646e-05 -7.82189e-05 5.29087e-05)
(3.29805e-05 -0.000131132 7.35421e-05)
(-2.59166e-06 -0.000130763 6.78493e-05)
(-2.27973e-05 -9.39629e-05 5.35803e-05)
(-1.79847e-05 -6.02008e-05 3.44105e-05)
(6.38377e-06 -4.65499e-05 2.82523e-05)
(2.49395e-05 -5.76811e-05 3.66044e-05)
(2.28989e-05 -7.49939e-05 4.73144e-05)
(1.6645e-05 -7.86723e-05 4.77034e-05)
(1.77415e-05 -8.77647e-05 5.14525e-05)
(7.47313e-06 -0.000104501 6.03112e-05)
(-1.67234e-05 -0.000100101 6.00571e-05)
(-3.49769e-05 -6.91591e-05 5.11851e-05)
(-2.56774e-05 -3.89923e-05 3.38781e-05)
(1.16766e-05 -3.50429e-05 3.18849e-05)
(4.0876e-05 -7.03109e-05 5.24578e-05)
(2.97163e-05 -0.00011492 7.68538e-05)
(4.75626e-06 -0.000114481 7.37421e-05)
(2.61704e-06 -9.04156e-05 6.14914e-05)
(2.00014e-05 -5.9311e-05 4.67092e-05)
(3.66549e-05 -4.33213e-05 2.8106e-05)
(2.74236e-05 -3.66398e-05 3.87981e-06)
(-1.51844e-05 -4.04232e-05 -1.02768e-05)
(-0.000138432 -8.12734e-05 0.000117906)
(0.000130701 -0.000128962 0.000109883)
(6.84231e-07 -8.31699e-05 6.76446e-05)
(-5.95107e-05 -7.13306e-05 6.69646e-05)
(-7.25017e-05 -3.95597e-05 5.05085e-05)
(-4.09061e-05 -1.89295e-05 3.66562e-05)
(7.42581e-06 -2.90931e-05 3.70318e-05)
(3.80118e-05 -7.10214e-05 5.26308e-05)
(3.04698e-05 -0.000116439 6.73823e-05)
(2.50239e-06 -0.000117182 6.67937e-05)
(-1.6101e-05 -8.68157e-05 5.69355e-05)
(-1.39142e-05 -5.44848e-05 4.18452e-05)
(5.9987e-06 -4.21974e-05 3.50116e-05)
(2.21164e-05 -5.18034e-05 4.06471e-05)
(2.08321e-05 -6.71569e-05 4.91083e-05)
(1.54029e-05 -7.06863e-05 5.11e-05)
(1.53951e-05 -7.86924e-05 5.43645e-05)
(6.32106e-06 -9.30005e-05 6.06306e-05)
(-1.47036e-05 -8.9544e-05 6.1654e-05)
(-3.13916e-05 -6.42518e-05 5.49212e-05)
(-2.4741e-05 -3.44394e-05 4.12728e-05)
(6.21196e-06 -2.99674e-05 3.7792e-05)
(3.14154e-05 -5.99092e-05 5.22528e-05)
(2.63813e-05 -9.79808e-05 6.95281e-05)
(9.19159e-06 -9.85712e-05 7.14422e-05)
(8.36504e-06 -7.9343e-05 6.37097e-05)
(2.39675e-05 -5.3093e-05 5.15829e-05)
(3.86131e-05 -3.80421e-05 3.33327e-05)
(2.96727e-05 -3.09933e-05 8.71897e-06)
(-8.78404e-06 -3.33032e-05 -7.62381e-06)
(-0.000130472 -7.20034e-05 0.000105858)
(9.75983e-05 -0.00011407 8.15288e-05)
(-5.34804e-06 -6.10483e-05 5.70698e-05)
(-5.02902e-05 -5.39877e-05 6.18093e-05)
(-6.07897e-05 -3.13052e-05 5.30923e-05)
(-3.57473e-05 -1.68062e-05 4.22192e-05)
(4.05434e-06 -2.61684e-05 4.12278e-05)
(3.01182e-05 -6.173e-05 5.11897e-05)
(2.68512e-05 -9.93419e-05 6.09113e-05)
(6.03897e-06 -0.000101903 6.26397e-05)
(-9.92992e-06 -7.83891e-05 5.63253e-05)
(-9.63102e-06 -5.036e-05 4.56929e-05)
(5.90369e-06 -3.896e-05 3.89508e-05)
(1.91367e-05 -4.57388e-05 4.23781e-05)
(1.83224e-05 -5.81598e-05 4.82077e-05)
(1.37727e-05 -6.23105e-05 5.07183e-05)
(1.28204e-05 -6.91493e-05 5.35107e-05)
(4.86956e-06 -8.01135e-05 5.79634e-05)
(-1.29632e-05 -7.79051e-05 5.95904e-05)
(-2.74935e-05 -5.83488e-05 5.45772e-05)
(-2.29652e-05 -3.15617e-05 4.52305e-05)
(1.57972e-06 -2.58527e-05 4.1199e-05)
(2.283e-05 -4.88905e-05 5.04342e-05)
(2.27629e-05 -7.9072e-05 6.23863e-05)
(1.26518e-05 -8.13193e-05 6.68148e-05)
(1.37791e-05 -6.71395e-05 6.25387e-05)
(2.82591e-05 -4.72988e-05 5.2829e-05)
(4.12432e-05 -3.37666e-05 3.56084e-05)
(3.26587e-05 -2.63791e-05 1.12228e-05)
(-1.25262e-06 -2.62118e-05 -6.43237e-06)
(-0.000119298 -5.61764e-05 9.59937e-05)
(6.64263e-05 -9.26189e-05 5.36358e-05)
(-1.17766e-05 -4.00741e-05 4.80421e-05)
(-4.25385e-05 -3.71766e-05 5.6333e-05)
(-5.01621e-05 -2.40054e-05 5.339e-05)
(-3.07676e-05 -1.42239e-05 4.48609e-05)
(1.32025e-06 -2.19582e-05 4.32697e-05)
(2.29976e-05 -5.05808e-05 4.91943e-05)
(2.27683e-05 -8.09265e-05 5.48722e-05)
(8.06637e-06 -8.48111e-05 5.71075e-05)
(-4.98926e-06 -6.78301e-05 5.32061e-05)
(-5.87002e-06 -4.61735e-05 4.61531e-05)
(6.10213e-06 -3.53368e-05 3.99811e-05)
(1.65215e-05 -3.91123e-05 4.19897e-05)
(1.57725e-05 -4.76563e-05 4.56489e-05)
(1.18857e-05 -5.18466e-05 4.76255e-05)
(1.0314e-05 -5.75794e-05 4.99851e-05)
(3.32719e-06 -6.58692e-05 5.3607e-05)
(-1.16077e-05 -6.54379e-05 5.51864e-05)
(-2.38617e-05 -5.06435e-05 5.14036e-05)
(-2.0834e-05 -2.87041e-05 4.57787e-05)
(-1.81382e-06 -2.12228e-05 4.20612e-05)
(1.59036e-05 -3.69437e-05 4.76858e-05)
(1.93645e-05 -5.94338e-05 5.59764e-05)
(1.50886e-05 -6.28619e-05 6.12569e-05)
(1.83484e-05 -5.35299e-05 5.93737e-05)
(3.24088e-05 -4.02034e-05 5.15419e-05)
(4.43188e-05 -2.89437e-05 3.55819e-05)
(3.62186e-05 -2.18507e-05 1.16343e-05)
(6.51769e-06 -1.88393e-05 -6.10677e-06)
(-0.000105149 -3.64922e-05 9.06752e-05)
(3.92773e-05 -6.68484e-05 2.9596e-05)
(-1.73517e-05 -2.15811e-05 4.10048e-05)
(-3.6224e-05 -2.1642e-05 5.14826e-05)
(-4.10263e-05 -1.61351e-05 5.17439e-05)
(-2.60361e-05 -9.33093e-06 4.53547e-05)
(-6.53804e-07 -1.54612e-05 4.40653e-05)
(1.69281e-05 -3.77651e-05 4.73422e-05)
(1.86758e-05 -6.16837e-05 4.98442e-05)
(8.76215e-06 -6.61595e-05 5.17803e-05)
(-1.71684e-06 -5.48105e-05 4.91481e-05)
(-3.0325e-06 -3.98715e-05 4.40052e-05)
(6.46718e-06 -3.00387e-05 3.87691e-05)
(1.45485e-05 -3.10702e-05 3.99803e-05)
(1.3582e-05 -3.54517e-05 4.24815e-05)
(9.95947e-06 -3.86031e-05 4.35166e-05)
(7.94647e-06 -4.33833e-05 4.54704e-05)
(1.69711e-06 -5.03064e-05 4.87425e-05)
(-1.06883e-05 -5.18344e-05 4.96483e-05)
(-2.07681e-05 -4.05306e-05 4.67958e-05)
(-1.86279e-05 -2.37433e-05 4.35826e-05)
(-3.82615e-06 -1.49481e-05 4.10994e-05)
(1.09163e-05 -2.39965e-05 4.48527e-05)
(1.65218e-05 -3.9568e-05 5.07209e-05)
(1.66339e-05 -4.35317e-05 5.6126e-05)
(2.18642e-05 -3.87502e-05 5.57366e-05)
(3.60252e-05 -3.10755e-05 4.91934e-05)
(4.75291e-05 -2.27799e-05 3.43527e-05)
(3.99237e-05 -1.62433e-05 1.07892e-05)
(1.28131e-05 -1.09059e-05 -5.84967e-06)
(-9.14706e-05 -1.6669e-05 9.0792e-05)
(1.77609e-05 -3.90796e-05 1.13795e-05)
(-2.12426e-05 -5.99544e-06 3.60183e-05)
(-3.08882e-05 -7.34699e-06 4.78405e-05)
(-3.32773e-05 -5.6336e-06 4.92548e-05)
(-2.16229e-05 -9.36337e-07 4.50783e-05)
(-1.97067e-06 -6.22771e-06 4.46538e-05)
(1.19427e-05 -2.34343e-05 4.63736e-05)
(1.48021e-05 -4.17727e-05 4.63729e-05)
(8.34592e-06 -4.62606e-05 4.77038e-05)
(-1.4437e-07 -3.95001e-05 4.56092e-05)
(-1.32296e-06 -3.02766e-05 4.08906e-05)
(6.82e-06 -2.22621e-05 3.65484e-05)
(1.32832e-05 -2.07215e-05 3.74216e-05)
(1.19582e-05 -2.14202e-05 3.96516e-05)
(8.17363e-06 -2.29403e-05 3.99542e-05)
(5.70312e-06 -2.69697e-05 4.15062e-05)
(-4.08744e-08 -3.33596e-05 4.4326e-05)
(-1.01659e-05 -3.62555e-05 4.41213e-05)
(-1.82575e-05 -2.77905e-05 4.22911e-05)
(-1.65065e-05 -1.53644e-05 4.02424e-05)
(-4.56986e-06 -6.4714e-06 3.94415e-05)
(7.77774e-06 -1.00873e-05 4.2601e-05)
(1.44092e-05 -1.96405e-05 4.69934e-05)
(1.73862e-05 -2.35666e-05 5.22477e-05)
(2.42293e-05 -2.31541e-05 5.2734e-05)
(3.89101e-05 -2.05415e-05 4.70545e-05)
(5.07051e-05 -1.5068e-05 3.30917e-05)
(4.3494e-05 -8.66765e-06 9.96637e-06)
(1.66141e-05 -2.45008e-06 -4.85471e-06)
(-8.26589e-05 3.24426e-07 9.55208e-05)
(3.64718e-06 -1.09709e-05 -2.9836e-07)
(-2.25952e-05 6.90676e-06 3.29032e-05)
(-2.58266e-05 6.19908e-06 4.5815e-05)
(-2.66158e-05 8.26673e-06 4.78957e-05)
(-1.77365e-05 1.08783e-05 4.56556e-05)
(-2.83205e-06 5.56976e-06 4.59997e-05)
(7.98069e-06 -7.87517e-06 4.6776e-05)
(1.12119e-05 -2.12996e-05 4.49854e-05)
(6.9472e-06 -2.55187e-05 4.56207e-05)
(-9.4716e-08 -2.27136e-05 4.36127e-05)
(-7.92906e-07 -1.78217e-05 3.86577e-05)
(6.9798e-06 -1.20882e-05 3.48294e-05)
(1.26557e-05 -8.2107e-06 3.57385e-05)
(1.09109e-05 -5.87372e-06 3.80412e-05)
(6.61199e-06 -5.74581e-06 3.79435e-05)
(3.579e-06 -9.24648e-06 3.9076e-05)
(-1.78559e-06 -1.53282e-05 4.12585e-05)
(-9.98194e-06 -1.85067e-05 4.01154e-05)
(-1.63248e-05 -1.31662e-05 3.9143e-05)
(-1.45342e-05 -3.91389e-06 3.76605e-05)
(-4.30014e-06 3.99809e-06 3.82556e-05)
(6.29343e-06 4.55102e-06 4.14439e-05)
(1.31036e-05 2.58549e-07 4.50879e-05)
(1.745e-05 -3.22073e-06 5.01638e-05)
(2.53261e-05 -6.94652e-06 5.09773e-05)
(4.09893e-05 -9.48623e-06 4.57504e-05)
(5.38379e-05 -6.3269e-06 3.25103e-05)
(4.67975e-05 9.33022e-07 1.01719e-05)
(1.7753e-05 6.7222e-06 -2.92699e-06)
(-8.39541e-05 1.37064e-05 0.000102513)
(-1.30795e-06 1.63098e-05 -5.33269e-06)
(-2.08759e-05 1.77464e-05 3.15855e-05)
(-2.04225e-05 1.90396e-05 4.5733e-05)
(-2.07338e-05 2.41117e-05 4.93646e-05)
(-1.4589e-05 2.49957e-05 4.83177e-05)
(-3.40606e-06 1.9314e-05 4.87707e-05)
(4.96857e-06 8.64433e-06 4.87962e-05)
(7.92517e-06 -6.26005e-07 4.60479e-05)
(4.65573e-06 -4.53838e-06 4.59796e-05)
(-1.39416e-06 -5.37975e-06 4.35293e-05)
(-1.40356e-06 -4.2149e-06 3.84602e-05)
(6.82597e-06 -8.5441e-07 3.47935e-05)
(1.25616e-05 5.09983e-06 3.59396e-05)
(1.03982e-05 1.03057e-05 3.821e-05)
(5.29104e-06 1.20055e-05 3.79189e-05)
(1.58502e-06 8.81546e-06 3.85988e-05)
(-3.41091e-06 2.86284e-06 4.01377e-05)
(-1.01169e-05 -2.7649e-07 3.87922e-05)
(-1.49674e-05 1.92569e-06 3.79071e-05)
(-1.27072e-05 8.79392e-06 3.70768e-05)
(-3.22836e-06 1.54456e-05 3.8335e-05)
(6.29547e-06 1.95177e-05 4.16789e-05)
(1.26299e-05 2.00262e-05 4.51556e-05)
(1.69187e-05 1.71627e-05 5.0166e-05)
(2.51068e-05 9.36979e-06 5.08202e-05)
(4.22332e-05 1.53873e-06 4.54529e-05)
(5.70587e-05 2.86642e-06 3.28766e-05)
(5.01318e-05 1.18959e-05 1.19259e-05)
(1.73973e-05 1.74679e-05 -1.78332e-07)
(-9.37429e-05 2.48903e-05 0.000109793)
(2.89148e-06 4.18638e-05 -3.97062e-06)
(-1.59722e-05 2.70897e-05 3.18248e-05)
(-1.44345e-05 3.08584e-05 4.74953e-05)
(-1.54486e-05 3.92472e-05 5.38163e-05)
(-1.21236e-05 3.98612e-05 5.32904e-05)
(-3.74061e-06 3.41422e-05 5.32065e-05)
(2.79271e-06 2.58462e-05 5.25607e-05)
(4.91966e-06 1.9821e-05 4.94097e-05)
(1.56271e-06 1.60705e-05 4.86756e-05)
(-4.00126e-06 1.17219e-05 4.53863e-05)
(-3.16526e-06 8.49271e-06 4.03431e-05)
(6.30837e-06 9.44207e-06 3.64764e-05)
(1.29697e-05 1.7585e-05 3.78738e-05)
(1.04301e-05 2.59808e-05 4.01164e-05)
(4.21391e-06 2.93714e-05 3.9866e-05)
(-2.91383e-07 2.62992e-05 4.00578e-05)
(-4.96232e-06 1.99865e-05 4.09059e-05)
(-1.0551e-05 1.60221e-05 3.98174e-05)
(-1.41003e-05 1.59548e-05 3.84949e-05)
(-1.10195e-05 2.04696e-05 3.85268e-05)
(-1.41288e-06 2.64584e-05 3.97534e-05)
(7.70561e-06 3.43215e-05 4.33161e-05)
(1.29746e-05 3.9516e-05 4.71482e-05)
(1.58357e-05 3.71813e-05 5.22361e-05)
(2.363e-05 2.51192e-05 5.22468e-05)
(4.26897e-05 1.21455e-05 4.6174e-05)
(6.04166e-05 1.20663e-05 3.42252e-05)
(5.38408e-05 2.34591e-05 1.51951e-05)
(1.63864e-05 3.04891e-05 3.79799e-06)
(-0.000109017 3.62286e-05 0.000116483)
(1.4438e-05 6.48758e-05 3.2535e-06)
(-8.20922e-06 3.56573e-05 3.31427e-05)
(-8.01421e-06 4.16763e-05 5.05423e-05)
(-1.0727e-05 5.1972e-05 5.98133e-05)
(-1.00187e-05 5.40113e-05 5.98109e-05)
(-3.76096e-06 4.90931e-05 5.90669e-05)
(1.36383e-06 4.31896e-05 5.79958e-05)
(2.21711e-06 3.97747e-05 5.46664e-05)
(-2.22655e-06 3.58867e-05 5.33181e-05)
(-8.02041e-06 2.77712e-05 4.89365e-05)
(-6.13512e-06 1.8702e-05 4.33163e-05)
(5.478e-06 1.74427e-05 3.87884e-05)
(1.39346e-05 2.8089e-05 4.05694e-05)
(1.1031e-05 4.03243e-05 4.31489e-05)
(3.3678e-06 4.54077e-05 4.33303e-05)
(-2.08115e-06 4.22851e-05 4.30086e-05)
(-6.58876e-06 3.5214e-05 4.28787e-05)
(-1.12549e-05 2.92762e-05 4.18254e-05)
(-1.36198e-05 2.78209e-05 4.02862e-05)
(-9.49194e-06 2.94032e-05 4.09002e-05)
(1.22072e-06 3.59337e-05 4.18545e-05)
(1.05307e-05 4.8479e-05 4.6054e-05)
(1.40989e-05 5.85355e-05 5.07776e-05)
(1.42239e-05 5.64562e-05 5.60331e-05)
(2.10459e-05 3.98594e-05 5.49107e-05)
(4.24708e-05 2.18554e-05 4.78203e-05)
(6.39341e-05 2.07094e-05 3.6423e-05)
(5.80999e-05 3.53418e-05 1.96414e-05)
(1.49567e-05 4.60482e-05 9.31826e-06)
(-0.000125818 4.94901e-05 0.000123414)
(3.15553e-05 8.43853e-05 1.54303e-05)
(1.74672e-06 4.40241e-05 3.52089e-05)
(-1.50174e-06 5.20239e-05 5.4183e-05)
(-6.6273e-06 6.25835e-05 6.5486e-05)
(-7.99017e-06 6.65953e-05 6.65678e-05)
(-3.32594e-06 6.32885e-05 6.56228e-05)
(6.97054e-07 5.99003e-05 6.45543e-05)
(-1.59373e-07 5.8932e-05 6.12482e-05)
(-6.68481e-06 5.44813e-05 5.93012e-05)
(-1.35283e-05 4.20543e-05 5.33895e-05)
(-1.02732e-05 2.59624e-05 4.58139e-05)
(4.43226e-06 2.29754e-05 4.0316e-05)
(1.5481e-05 3.64362e-05 4.26973e-05)
(1.21745e-05 5.30911e-05 4.64239e-05)
(2.68252e-06 5.927e-05 4.73081e-05)
(-3.76469e-06 5.59401e-05 4.64634e-05)
(-8.33404e-06 4.84337e-05 4.51259e-05)
(-1.21966e-05 4.01713e-05 4.34837e-05)
(-1.34976e-05 3.72155e-05 4.21894e-05)
(-8.14372e-06 3.52732e-05 4.25278e-05)
(4.74811e-06 4.34597e-05 4.35536e-05)
(1.48049e-05 6.16095e-05 4.92993e-05)
(1.59323e-05 7.68936e-05 5.55084e-05)
(1.2135e-05 7.46686e-05 6.09202e-05)
(1.75901e-05 5.33429e-05 5.82245e-05)
(4.17094e-05 2.97282e-05 4.99073e-05)
(6.77652e-05 2.81393e-05 3.89969e-05)
(6.329e-05 4.73974e-05 2.47157e-05)
(1.39241e-05 6.35144e-05 1.62608e-05)
(-0.000139699 6.38776e-05 0.000131693)
(5.30495e-05 9.91111e-05 3.08737e-05)
(1.32075e-05 5.23868e-05 3.75425e-05)
(4.73204e-06 6.21889e-05 5.75957e-05)
(-3.26397e-06 7.25175e-05 6.95573e-05)
(-5.97759e-06 7.77032e-05 7.20148e-05)
(-2.29498e-06 7.61266e-05 7.16505e-05)
(8.95009e-07 7.52504e-05 7.12411e-05)
(-2.2195e-06 7.68847e-05 6.83867e-05)
(-1.18101e-05 7.13967e-05 6.56722e-05)
(-2.03416e-05 5.43593e-05 5.7582e-05)
(-1.53938e-05 3.11144e-05 4.64641e-05)
(3.25684e-06 2.66732e-05 3.98663e-05)
(1.75083e-05 4.34836e-05 4.32037e-05)
(1.36514e-05 6.44544e-05 4.90232e-05)
(2.02239e-06 7.06206e-05 5.02574e-05)
(-5.2317e-06 6.69407e-05 4.89e-05)
(-1.00244e-05 5.99886e-05 4.67689e-05)
(-1.33097e-05 5.00049e-05 4.41046e-05)
(-1.37483e-05 4.47553e-05 4.30637e-05)
(-6.97791e-06 3.91633e-05 4.20424e-05)
(9.07242e-06 4.92869e-05 4.36758e-05)
(2.04775e-05 7.35157e-05 5.21815e-05)
(1.83332e-05 9.4422e-05 6.05941e-05)
(9.64896e-06 9.15205e-05 6.59011e-05)
(1.3507e-05 6.51166e-05 6.10939e-05)
(4.06321e-05 3.48576e-05 5.12241e-05)
(7.21193e-05 3.40977e-05 4.09315e-05)
(6.97661e-05 5.94907e-05 2.9602e-05)
(1.43897e-05 8.19029e-05 2.40042e-05)
(-0.000148766 7.68015e-05 0.000140731)
(7.76464e-05 0.000108041 4.6929e-05)
(2.5026e-05 6.06633e-05 3.95236e-05)
(1.0334e-05 7.19741e-05 5.96293e-05)
(-7.12727e-07 8.26604e-05 7.1125e-05)
(-4.11628e-06 8.79366e-05 7.44246e-05)
(-6.18911e-07 8.73577e-05 7.53162e-05)
(2.08951e-06 8.83903e-05 7.68472e-05)
(-3.99788e-06 9.30627e-05 7.50928e-05)
(-1.74331e-05 8.61935e-05 7.08708e-05)
(-2.78158e-05 6.47505e-05 6.02335e-05)
(-2.11515e-05 3.57217e-05 4.4617e-05)
(2.01554e-06 2.96491e-05 3.67076e-05)
(1.97168e-05 5.0132e-05 4.15548e-05)
(1.50699e-05 7.45922e-05 4.98962e-05)
(1.25867e-06 8.01194e-05 5.04954e-05)
(-6.33351e-06 7.59845e-05 4.86757e-05)
(-1.13757e-05 7.01937e-05 4.68961e-05)
(-1.4439e-05 5.94978e-05 4.32044e-05)
(-1.43154e-05 5.12433e-05 4.21545e-05)
(-5.96889e-06 4.2845e-05 3.89146e-05)
(1.38562e-05 5.42504e-05 4.12595e-05)
(2.71845e-05 8.41983e-05 5.34962e-05)
(2.10334e-05 0.00011087 6.51306e-05)
(6.81283e-06 0.000106715 6.93773e-05)
(9.16173e-06 7.49213e-05 6.18885e-05)
(3.96389e-05 3.77495e-05 5.02204e-05)
(7.7111e-05 3.87431e-05 4.10052e-05)
(7.77409e-05 7.11969e-05 3.35457e-05)
(1.78415e-05 0.000100158 3.17411e-05)
(-0.000150726 8.54313e-05 0.000148447)
(0.000102008 0.000111433 6.06045e-05)
(3.58946e-05 6.86633e-05 4.01668e-05)
(1.48323e-05 8.10671e-05 5.89153e-05)
(1.13956e-06 9.29738e-05 6.95944e-05)
(-2.58232e-06 9.82712e-05 7.25658e-05)
(1.50429e-06 9.74386e-05 7.49137e-05)
(4.17224e-06 9.84957e-05 7.98783e-05)
(-5.50112e-06 0.000106653 8.01394e-05)
(-2.31754e-05 9.87734e-05 7.3147e-05)
(-3.50394e-05 7.35186e-05 6.02437e-05)
(-2.68792e-05 4.1238e-05 4.01272e-05)
(7.14452e-07 3.33586e-05 3.07758e-05)
(2.15587e-05 5.67881e-05 3.74868e-05)
(1.60304e-05 8.38038e-05 4.79791e-05)
(3.99726e-07 8.93719e-05 4.69225e-05)
(-7.00636e-06 8.47426e-05 4.47687e-05)
(-1.21811e-05 7.94284e-05 4.46284e-05)
(-1.53678e-05 6.86806e-05 4.03779e-05)
(-1.49793e-05 5.73306e-05 3.90785e-05)
(-5.01619e-06 4.78698e-05 3.32195e-05)
(1.85682e-05 5.9722e-05 3.59314e-05)
(3.41815e-05 9.41349e-05 5.20854e-05)
(2.36446e-05 0.00012571 6.8097e-05)
(3.82836e-06 0.000120354 6.96193e-05)
(5.20238e-06 8.33307e-05 5.90252e-05)
(3.91889e-05 4.05025e-05 4.58048e-05)
(8.25749e-05 4.30972e-05 3.81828e-05)
(8.68666e-05 8.18094e-05 3.57122e-05)
(2.48121e-05 0.000116997 3.8291e-05)
(-0.00014448 8.81523e-05 0.000151676)
(0.000121845 0.000110869 6.95972e-05)
(4.44655e-05 7.61403e-05 3.84233e-05)
(1.78512e-05 8.96305e-05 5.39926e-05)
(2.47949e-06 0.000102468 6.4297e-05)
(-1.40377e-06 0.00010916 6.60802e-05)
(3.56246e-06 0.00010687 6.94645e-05)
(6.60633e-06 0.000105073 7.84523e-05)
(-6.69203e-06 0.000116508 8.18809e-05)
(-2.83428e-05 0.000109006 7.08646e-05)
(-4.07526e-05 8.06603e-05 5.67597e-05)
(-3.14623e-05 4.8558e-05 3.31002e-05)
(-7.03171e-07 3.93369e-05 2.29065e-05)
(2.22342e-05 6.36685e-05 3.08493e-05)
(1.62509e-05 9.22405e-05 4.25056e-05)
(-3.35358e-07 9.98713e-05 3.9472e-05)
(-7.33833e-06 9.47849e-05 3.72436e-05)
(-1.24551e-05 8.79116e-05 3.94331e-05)
(-1.58648e-05 7.72763e-05 3.52973e-05)
(-1.5334e-05 6.32598e-05 3.38194e-05)
(-3.90891e-06 5.51333e-05 2.52914e-05)
(2.2523e-05 6.72046e-05 2.82631e-05)
(4.01557e-05 0.000103863 4.73491e-05)
(2.56918e-05 0.00013791 6.81969e-05)
(1.25764e-06 0.000132563 6.52062e-05)
(2.72791e-06 9.18139e-05 5.16262e-05)
(3.97979e-05 4.55021e-05 3.80477e-05)
(8.77606e-05 4.87455e-05 3.25769e-05)
(9.59403e-05 9.08024e-05 3.50827e-05)
(3.47092e-05 0.000131128 4.19434e-05)
(-0.000128962 8.4933e-05 0.000146838)
(0.000133244 0.000107951 7.27643e-05)
(4.96217e-05 8.24499e-05 3.2986e-05)
(1.92014e-05 9.79415e-05 4.35525e-05)
(3.43957e-06 0.000110332 5.32271e-05)
(-4.06945e-07 0.000120048 5.4718e-05)
(4.85658e-06 0.000115729 5.83456e-05)
(8.43699e-06 0.000108022 6.97416e-05)
(-7.55323e-06 0.00012117 7.76071e-05)
(-3.19645e-05 0.000116605 6.21231e-05)
(-4.33157e-05 8.56112e-05 4.81213e-05)
(-3.33312e-05 5.75638e-05 2.43897e-05)
(-2.29837e-06 4.82481e-05 1.46168e-05)
(2.06788e-05 7.1041e-05 2.17788e-05)
(1.54679e-05 9.97404e-05 3.27385e-05)
(-5.6946e-07 0.000111602 2.86624e-05)
(-7.51036e-06 0.000106158 2.68165e-05)
(-1.23337e-05 9.54688e-05 3.08635e-05)
(-1.56955e-05 8.52485e-05 2.76193e-05)
(-1.48479e-05 6.85882e-05 2.5967e-05)
(-2.32114e-06 6.44903e-05 1.61875e-05)
(2.47879e-05 7.71809e-05 1.93799e-05)
(4.325e-05 0.000113358 3.90194e-05)
(2.66084e-05 0.000145867 6.31747e-05)
(2.51181e-07 0.000143169 5.47154e-05)
(3.28666e-06 0.000101419 3.98606e-05)
(4.20694e-05 5.37102e-05 2.87269e-05)
(9.1419e-05 5.64601e-05 2.55252e-05)
(0.000102882 9.77356e-05 2.99653e-05)
(4.6369e-05 0.000141069 4.00822e-05)
(-0.000100164 7.62067e-05 0.000129632)
(0.000133262 0.00010289 6.93978e-05)
(5.01184e-05 8.64554e-05 2.1313e-05)
(1.88761e-05 0.000105633 2.60875e-05)
(4.13025e-06 0.000116569 3.45823e-05)
(5.51534e-07 0.000129113 3.73051e-05)
(4.88419e-06 0.000123113 4.05136e-05)
(8.45242e-06 0.000107845 5.1318e-05)
(-8.21657e-06 0.000119444 6.22491e-05)
(-3.28015e-05 0.000121065 4.42106e-05)
(-4.0975e-05 8.79972e-05 3.24905e-05)
(-3.06911e-05 6.66899e-05 1.50075e-05)
(-4.07928e-06 5.89965e-05 7.95912e-06)
(1.56334e-05 7.8782e-05 1.07481e-05)
(1.32034e-05 0.000105757 1.75288e-05)
(3.71155e-08 0.000122971 1.44021e-05)
(-7.59807e-06 0.000117283 1.36678e-05)
(-1.1808e-05 0.00010142 1.80672e-05)
(-1.45794e-05 9.21119e-05 1.69133e-05)
(-1.29838e-05 7.26374e-05 1.49923e-05)
(1.08929e-07 7.43261e-05 7.16781e-06)
(2.43202e-05 8.83556e-05 1.07809e-05)
(4.11688e-05 0.000121451 2.64213e-05)
(2.55938e-05 0.000147946 4.8442e-05)
(2.36694e-06 0.000151329 3.6e-05)
(8.68875e-06 0.000111389 2.40813e-05)
(4.6757e-05 6.33296e-05 1.94969e-05)
(9.2218e-05 6.50796e-05 1.87267e-05)
(0.000104884 0.000102395 1.88588e-05)