/*--------------------------------*- C++ -*----------------------------------*\
| =========                 |                                                 |
| \\      /  F ield         | OpenFOAM: The Open Source CFD Toolbox           |
|  \\    /   O peration     | Version:  2106                                  |
|   \\  /    A nd           | Website:  www.openfoam.com                      |
|    \\/     M anipulation  |                                                 |
\*---------------------------------------------------------------------------*/
FoamFile
{
    version     2.0;
    format      ascii;
    arch        "LSB;label=32;scalar=64";
    class       volSymmTensorField;
    location    "482";
    object      epsilon;
}
// * * * * * * * * * * * * * * * * * * * * * * * * * * * * * * * * * * * * * //

dimensions      [0 0 0 0 0 0 0];

internalField   nonuniform List<symmTensor> 
9000
(
(1.58816 0.130577 -0.855791 2.5496 -0.542213 -8.93238)
(0.392892 -0.00384785 -0.626889 4.91657 -1.01014 -14.2222)
(0.19237 -0.0576526 0.51327 3.64152 -0.984108 -10.4952)
(-0.0731032 -0.0405307 0.65621 1.33196 -0.412804 -4.12607)
(-0.222837 -0.0136213 0.0160583 -0.163614 -0.0556279 -0.00789571)
(-0.215771 0.0297476 -0.823346 -0.0982253 -0.0716798 -0.192006)
(0.00318451 0.0623889 -1.41249 1.67919 -0.422524 -5.13278)
(0.246054 0.00883682 -0.802036 3.96365 -0.850331 -11.5321)
(0.233969 -0.0570426 0.231707 3.66828 -1.14137 -10.5929)
(0.0668819 -0.0341002 0.734268 2.47727 -1.04309 -7.16293)
(-0.105842 0.00256037 0.65795 1.06693 -0.579616 -3.34403)
(-0.167525 0.0139212 0.0427865 0.434264 -0.286145 -1.65035)
(-0.0233533 0.0134034 -0.459756 1.0913 -0.396913 -3.55508)
(0.0808369 0.00263737 -0.0947026 1.98617 -0.6573 -5.99436)
(-0.0412709 -0.000487129 0.138679 1.7401 -0.680197 -5.20201)
(-0.0839913 0.0119979 -0.398864 1.92926 -0.745583 -5.64107)
(0.0758091 0.00927666 -0.467206 2.89809 -0.93799 -8.3697)
(0.170875 -0.0238779 0.118573 3.01475 -0.958846 -8.82724)
(0.0812181 -0.0238955 0.656754 2.19417 -0.901709 -6.44422)
(-0.130646 0.00516981 0.650168 0.752309 -0.435043 -2.48072)
(-0.248244 0.0317248 -0.196552 0.217332 -0.182681 -0.969034)
(-0.0382716 0.0637812 -1.01734 1.70119 -0.46653 -5.13037)
(0.231652 0.0119911 -0.450506 3.88546 -0.751322 -11.3407)
(0.19642 -0.0482331 0.575473 3.27623 -0.945094 -9.54328)
(0.0341188 -0.0294714 0.873623 2.22936 -0.785934 -6.6064)
(-0.0891325 -0.0120994 0.800291 1.36523 -0.514993 -4.20845)
(-0.144286 -0.0037219 0.292582 1.06162 -0.375892 -3.34604)
(-0.0229403 0.00237786 -0.184555 1.81142 -0.561718 -5.42085)
(0.0420186 0.0251177 0.0794808 2.21168 -0.650639 -6.59811)
(0.0240557 0.014019 0.0207554 0.00983753 0.0649888 -0.697489)
(0.78655 0.299725 -0.385639 1.26042 -0.635237 -4.71313)
(0.19824 0.0310425 -0.470233 2.38468 -1.07471 -7.84492)
(0.0996841 -0.245954 -0.053025 1.85342 -1.38719 -5.91779)
(-0.0375725 -0.214443 0.0273797 0.607282 -0.675623 -2.18245)
(-0.114903 -0.0757492 -0.20915 -0.191958 -0.244689 0.255723)
(-0.114272 0.130679 -0.513197 -0.163726 -0.270084 0.174731)
(0.0115283 0.276906 -0.747833 0.770351 -0.599205 -2.73254)
(0.151598 0.0840051 -0.427371 1.88705 -0.984886 -6.32676)
(0.140765 -0.17663 0.034089 1.88874 -1.758 -6.04605)
(0.0464978 -0.15934 0.316802 1.39397 -1.82718 -4.32958)
(-0.0590766 -0.0582874 0.326924 0.539446 -1.14405 -1.86548)
(-0.100912 0.0361237 0.0299584 0.135904 -0.62977 -0.735997)
(-0.00446546 0.0836537 -0.217654 0.482085 -0.730348 -1.94014)
(0.0592833 0.0254653 0.0380663 0.998032 -1.05997 -3.43818)
(-0.0369807 -0.00475714 0.161658 0.873499 -1.19551 -2.85521)
(-0.0715809 0.0677021 -0.215173 0.985395 -1.29574 -3.10195)
(0.040157 0.0583379 -0.307177 1.50862 -1.47017 -4.83426)
(0.110741 -0.0764682 -0.0100472 1.54713 -1.54521 -5.18271)
(0.0601073 -0.126916 0.29659 1.23538 -1.56766 -3.94753)
(-0.0700542 -0.0510333 0.341858 0.371748 -0.882358 -1.36621)
(-0.148898 0.105147 -0.0362073 0.0258832 -0.438417 -0.294587)
(-0.0238044 0.265134 -0.431665 0.786965 -0.70323 -2.66455)
(0.145417 0.0769675 -0.16933 1.80978 -0.77463 -6.10617)
(0.125158 -0.167116 0.344563 1.63228 -1.41024 -5.25954)
(0.0305207 -0.130179 0.538331 1.10186 -1.3268 -3.60897)
(-0.0473957 -0.0638799 0.568601 0.6307 -0.919744 -2.22656)
(-0.102867 0.00807456 0.319717 0.462952 -0.696328 -1.81486)
(-0.0517032 0.0440649 -0.0281606 0.917877 -0.867049 -3.25777)
(-0.043056 0.00270903 -0.126633 1.11022 -0.955354 -3.99507)
(-0.280015 -0.0473336 -0.270734 -0.141644 0.110734 0.557619)
(0.140885 0.329096 0.0612001 0.275943 -0.772691 -1.52952)
(-0.0116299 0.0497331 -0.336421 0.626603 -1.20342 -3.39314)
(0.0114219 -0.256136 -0.4978 0.62177 -1.5355 -2.84839)
(-0.00040714 -0.229434 -0.458243 0.121214 -0.873121 -0.946692)
(-0.0101622 -0.0790581 -0.375653 -0.194834 -0.436015 0.326901)
(-0.0141367 0.146371 -0.253219 -0.192607 -0.474344 0.314336)
(0.0151889 0.302133 -0.200341 0.135122 -0.775522 -1.11923)
(0.0513837 0.0933699 -0.141799 0.43336 -1.16608 -2.72835)
(0.0539457 -0.171142 -0.14536 0.673367 -1.95155 -3.07985)
(0.0377918 -0.162864 -0.00497475 0.69812 -1.93061 -2.68394)
(-0.0113346 -0.0690845 0.105209 0.234502 -1.33066 -1.12474)
(-0.0417692 0.0427272 0.0450445 -0.0342522 -0.849706 -0.278451)
(0.00866863 0.0997658 -0.0254181 0.104295 -0.918512 -0.969711)
(0.0375099 0.024799 0.130196 0.34519 -1.19889 -1.82345)
(-0.0306097 -0.011377 0.172548 0.308668 -1.38191 -1.44327)
(-0.0580776 0.0802696 -0.0611599 0.358321 -1.48375 -1.55369)
(0.00312933 0.070753 -0.172153 0.5645 -1.61417 -2.54718)
(0.0524776 -0.0722038 -0.121884 0.589495 -1.72423 -2.85874)
(0.0465917 -0.136354 0.0146624 0.634224 -1.6402 -2.50495)
(-0.00862339 -0.0664135 0.135389 0.161546 -1.04334 -0.831816)
(-0.0542443 0.108327 0.115262 -0.0932146 -0.645381 0.0513188)
(-0.0146125 0.281954 0.0458362 0.140209 -0.890999 -1.00179)
(0.0530653 0.081231 0.0422286 0.352073 -0.958564 -2.45292)
(0.0568 -0.178737 0.130457 0.490167 -1.6222 -2.39906)
(0.0334646 -0.137894 0.265718 0.35966 -1.54622 -1.75634)
(-0.00693829 -0.0667797 0.396971 0.170224 -1.12117 -1.06958)
(-0.0647002 0.016303 0.341917 0.0863147 -0.907194 -0.893469)
(-0.0714289 0.0582477 0.0852115 0.342723 -0.986537 -1.94087)
(-0.115896 0.000575426 -0.248673 0.412941 -1.02556 -2.41138)
(-0.524369 -0.0636506 -0.499356 -0.313833 -0.0722068 1.5909)
(-0.376998 0.27597 0.425984 -0.172192 -0.972792 0.637484)
(-0.19289 0.0597388 -0.203724 -0.0884957 -1.41384 -0.62357)
(-0.0624449 -0.179466 -0.787656 0.126193 -1.59045 -0.922826)
(0.0288398 -0.167586 -0.791891 -0.020785 -0.993885 -0.25151)
(0.074752 -0.054625 -0.486154 -0.113344 -0.572759 0.239653)
(0.0675214 0.117137 -0.0565403 -0.117601 -0.620457 0.25822)
(0.0174993 0.23168 0.202218 -0.0957973 -0.934673 -0.149627)
(-0.0293252 0.0731573 0.0725564 -0.1584 -1.41097 -0.515503)
(-0.0150793 -0.101507 -0.242128 0.182737 -1.99263 -1.22682)
(0.0294698 -0.107457 -0.218026 0.401587 -1.76686 -1.57663)
(0.0265973 -0.0600309 -0.0525877 0.176547 -1.31751 -0.749082)
(0.00637254 0.0367298 0.0632944 -0.0120611 -0.95552 -0.137115)
(0.017215 0.087113 0.124289 0.0175794 -1.00137 -0.441323)
(0.0178219 0.0137478 0.192727 0.0993026 -1.22132 -0.812204)
(-0.0234486 -0.0180854 0.175017 0.123712 -1.41344 -0.621331)
(-0.044694 0.0691354 0.0602903 0.139716 -1.51335 -0.637232)
(-0.027102 0.0652446 -0.0644629 0.176224 -1.61911 -1.08199)
(0.00365237 -0.037758 -0.191055 0.225224 -1.71628 -1.39241)
(0.0344143 -0.101394 -0.185992 0.382656 -1.4694 -1.52266)
(0.0408825 -0.0683119 -0.0181006 0.142021 -1.03703 -0.580906)
(0.0225152 0.0698502 0.218199 -0.0578249 -0.773132 0.130697)
(-0.00712582 0.205488 0.375575 -0.0837863 -1.04613 -0.0319841)
(-0.0220444 0.057515 0.19421 -0.230109 -1.24422 -0.227948)
(0.00202771 -0.131651 -0.0164424 0.0446282 -1.74108 -0.640963)
(0.0364372 -0.0958587 0.0717524 0.112537 -1.60516 -0.672685)
(0.0256032 -0.0468821 0.27362 0.0588736 -1.19651 -0.457875)
(-0.0330443 0.0211428 0.361725 0.0206998 -1.01297 -0.455396)
(-0.0846968 0.0597829 0.170037 0.150757 -1.00211 -1.19758)
(-0.176261 0.00280007 -0.336421 0.157474 -0.991217 -1.48085)
(-0.710318 -0.0637841 -0.682007 -0.369545 -0.339322 2.27927)
(-0.739282 0.186538 0.678341 -0.291124 -1.16866 1.94637)
(-0.322358 0.0592809 -0.0891887 -0.23335 -1.56424 0.916984)
(-0.115765 -0.0763271 -0.931595 0.0157174 -1.57652 0.196849)
(0.0464808 -0.0786054 -0.979947 0.0140236 -1.01188 0.0956908)
(0.132491 -0.0216375 -0.544186 0.00402834 -0.609628 0.0993895)
(0.123366 0.069203 0.072822 -0.00202475 -0.657432 0.135184)
(0.0199393 0.124621 0.452035 -0.107979 -1.02045 0.375843)
(-0.0806986 0.0408874 0.218877 -0.27404 -1.60321 0.699419)
(-0.061901 -0.021674 -0.258338 0.0576674 -1.96086 -0.123161)
(0.0178406 -0.0355097 -0.328726 0.263793 -1.55825 -0.746737)
(0.0503162 -0.0373222 -0.158879 0.19323 -1.19842 -0.493682)
(0.0415952 0.0252895 0.0752637 0.0824332 -0.936531 -0.126012)
(0.022378 0.0577882 0.225954 0.0465341 -0.983035 -0.135363)
(0.00212027 -0.000658365 0.229076 0.044327 -1.18705 -0.174827)
(-0.0167466 -0.0219078 0.17242 0.108225 -1.35657 -0.137834)
(-0.0327916 0.0453383 0.144538 0.109803 -1.45832 -0.095783)
(-0.0471954 0.0503001 0.0140818 0.0638664 -1.57592 -0.161719)
(-0.0321089 0.000559266 -0.218794 0.125497 -1.62739 -0.445872)
(0.0214564 -0.0513736 -0.310422 0.257966 -1.25745 -0.75812)
(0.0728075 -0.0581719 -0.133327 0.172717 -0.930572 -0.403526)
(0.0758995 0.0183866 0.260942 0.046258 -0.783236 0.0883719)
(0.000532393 0.0968006 0.55762 -0.0740701 -1.12051 0.446966)
(-0.0699687 0.0239109 0.287312 -0.321066 -1.46921 0.955827)
(-0.034515 -0.0649958 -0.088832 -0.0303963 -1.77684 0.340177)
(0.0366608 -0.0367446 -0.0385016 0.0936418 -1.55558 -0.0456473)
(0.0470573 -0.0172169 0.197393 0.0908674 -1.15355 -0.117621)
(-0.00962501 0.0228059 0.376634 0.0902395 -0.988847 -0.271781)
(-0.0919461 0.0514306 0.233737 0.135783 -0.924731 -0.789032)
(-0.222118 0.00789684 -0.372292 0.101259 -0.893984 -0.92817)
(-0.831779 -0.0493264 -0.780564 -0.328488 -0.579081 2.62522)
(-0.95434 0.0933016 0.811816 -0.252225 -1.29874 2.62257)
(-0.394119 0.0507584 -0.00869155 -0.124122 -1.58117 1.62092)
(-0.146545 0.0165855 -0.95561 0.0597147 -1.47726 0.809754)
(0.052878 0.00644837 -1.04929 0.0891029 -0.938013 0.297741)
(0.162926 0.00855865 -0.558926 0.0991531 -0.549194 0.020788)
(0.153101 0.0195918 0.140564 0.084353 -0.597476 0.0794184)
(0.022905 0.0199873 0.56755 -0.0464308 -1.0261 0.655378)
(-0.103488 0.00762394 0.304966 -0.177732 -1.67819 1.25827)
(-0.0876 0.0390256 -0.217412 0.0761706 -1.8571 0.522388)
(0.00430493 0.0270073 -0.360969 0.188126 -1.37908 -0.100844)
(0.0604654 -0.00701204 -0.216901 0.199234 -1.03511 -0.231622)
(0.0631606 0.0139456 0.0789147 0.151099 -0.823286 -0.0791947)
(0.0250837 0.0226765 0.278753 0.0823016 -0.896967 0.102736)
(-0.00822276 -0.0130665 0.243716 0.0569248 -1.11049 0.243541)
(-0.0115613 -0.021998 0.168143 0.138194 -1.23501 0.184438)
(-0.0235798 0.0176499 0.191421 0.137627 -1.33868 0.254812)
(-0.05744 0.0311182 0.0640737 0.0658948 -1.49002 0.41046)
(-0.0545146 0.028635 -0.217233 0.114379 -1.49355 0.194286)
(0.00878932 -0.00435394 -0.373779 0.177598 -1.08107 -0.136305)
(0.0875548 -0.0378764 -0.212344 0.182698 -0.780463 -0.189781)
(0.105843 -0.0253646 0.253667 0.129523 -0.691459 0.0801037)
(0.00843213 -0.00469865 0.613381 0.0145994 -1.0895 0.662955)
(-0.0905456 -0.00814491 0.329003 -0.194092 -1.55629 1.45716)
(-0.0531478 -0.00472189 -0.0966698 0.038616 -1.70718 0.853518)
(0.0340615 0.0172058 -0.0766457 0.135261 -1.42171 0.360925)
(0.0576378 0.0132407 0.164197 0.137459 -1.02628 0.138802)
(0.00508151 0.0234718 0.386622 0.158642 -0.860385 -0.131605)
(-0.0928756 0.0372878 0.274561 0.157128 -0.786457 -0.519377)
(-0.247697 0.0117006 -0.34856 0.111125 -0.758309 -0.594482)
(-0.894758 -0.029492 -0.803094 -0.238382 -0.751825 2.72374)
(-1.04591 0.0147299 0.839758 -0.161173 -1.35519 2.86079)
(-0.413843 0.0384978 0.0346197 0.0497939 -1.46214 1.81032)
(-0.157005 0.0809819 -0.89602 0.133657 -1.31164 1.12514)
(0.0507584 0.0720811 -1.02661 0.135769 -0.806148 0.475447)
(0.170525 0.0312912 -0.541581 0.137621 -0.434572 0.0672548)
(0.161157 -0.0224668 0.158444 0.111575 -0.495605 0.146257)
(0.0263884 -0.0601904 0.580237 0.0118951 -0.972105 0.820158)
(-0.104284 -0.019621 0.343868 -0.0280563 -1.63382 1.43384)
(-0.096545 0.0717904 -0.146037 0.123826 -1.70169 0.901859)
(-0.00834856 0.0699362 -0.337524 0.137488 -1.22454 0.403511)
(0.0603578 0.0234592 -0.232471 0.178158 -0.875473 0.0525359)
(0.0722473 0.00516229 0.0765647 0.15831 -0.680067 0.0645586)
(0.0261398 -0.00817389 0.290946 0.0938328 -0.792726 0.316547)
(-0.0132031 -0.0207878 0.24362 0.0796472 -1.00949 0.52971)
(-0.0085099 -0.0197665 0.163758 0.155718 -1.08093 0.440409)
(-0.0175998 -0.00721078 0.206392 0.159324 -1.18284 0.51843)
(-0.0599071 0.0115983 0.0889279 0.0994603 -1.3693 0.76279)
(-0.06549 0.0428523 -0.199088 0.120655 -1.34359 0.636641)
(-0.00182972 0.0317639 -0.391289 0.117515 -0.939713 0.36306)
(0.0890967 -0.0129325 -0.257345 0.162052 -0.634364 0.0653849)
(0.116019 -0.052811 0.213159 0.15182 -0.556765 0.175512)
(0.0158807 -0.0783166 0.577926 0.0923891 -0.982689 0.775951)
(-0.0894377 -0.032576 0.333207 -0.0173659 -1.50445 1.56853)
(-0.0574438 0.0359958 -0.0602232 0.125595 -1.55573 1.11791)
(0.0298589 0.0553273 -0.0636034 0.16182 -1.24984 0.670064)
(0.0598127 0.0381147 0.165199 0.152597 -0.869821 0.378121)
(0.0118261 0.0245117 0.394708 0.171226 -0.696674 0.0570522)
(-0.0894672 0.0240063 0.298893 0.15396 -0.628536 -0.292128)
(-0.257121 0.011084 -0.285467 0.122698 -0.612365 -0.375839)
(-0.910345 -0.0160319 -0.754306 -0.133247 -0.848008 2.64553)
(-1.04014 -0.0409763 0.785413 -0.0590539 -1.35623 2.78459)
(-0.393287 0.0256514 0.0478995 0.197315 -1.25669 1.71868)
(-0.151157 0.112428 -0.793161 0.193177 -1.11411 1.25686)
(0.0438831 0.113126 -0.942129 0.152673 -0.660497 0.636147)
(0.161557 0.0447833 -0.501899 0.121356 -0.320628 0.229605)
(0.153877 -0.0512943 0.140769 0.0935963 -0.403775 0.305857)
(0.0300478 -0.108087 0.528628 0.0556996 -0.900813 0.906341)
(-0.0914574 -0.0389195 0.350254 0.101297 -1.51121 1.41011)
(-0.0937574 0.079434 -0.0691907 0.162453 -1.5262 1.1125)
(-0.0178178 0.09351 -0.280689 0.109496 -1.09523 0.754627)
(0.053704 0.0475444 -0.214411 0.143003 -0.739174 0.326349)
(0.0715371 1.27913e-05 0.0711765 0.124768 -0.559819 0.266144)
(0.0260385 -0.0289984 0.276862 0.0919378 -0.700932 0.493053)
(-0.0140211 -0.0252003 0.234627 0.0968566 -0.901586 0.720749)
(-0.00751418 -0.0176272 0.159228 0.14791 -0.929177 0.660808)
(-0.0146448 -0.0249554 0.197813 0.157462 -1.02451 0.734697)
(-0.0572013 -0.00471997 0.0930464 0.133012 -1.22945 0.966975)
(-0.0676086 0.0457646 -0.175793 0.131049 -1.19766 0.918618)
(-0.00926602 0.0558044 -0.377278 0.0822246 -0.830501 0.715735)
(0.0819498 0.0100905 -0.273263 0.126475 -0.511627 0.323048)
(0.11205 -0.0648265 0.156524 0.128711 -0.435697 0.342329)
(0.0221898 -0.117853 0.49082 0.134316 -0.847091 0.852231)
(-0.0747219 -0.0477436 0.315461 0.129259 -1.36161 1.48911)
(-0.0518927 0.0537787 -0.00342216 0.187363 -1.36591 1.24546)
(0.0256608 0.076296 -0.0192963 0.16514 -1.08261 0.907457)
(0.0566929 0.05429 0.189098 0.137803 -0.730924 0.600132)
(0.0129409 0.02622 0.403301 0.139235 -0.554892 0.276014)
(-0.0838547 0.0171837 0.311575 0.129035 -0.497691 -0.0982945)
(-0.25549 0.00866534 -0.220915 0.119428 -0.490093 -0.219753)
(-0.893509 -0.0085193 -0.692139 -0.0247194 -0.877662 2.4558)
(-0.961697 -0.073106 0.673236 0.0499755 -1.30978 2.46831)
(-0.346148 0.0138174 0.0270303 0.287216 -0.999717 1.51695)
(-0.133896 0.117436 -0.679687 0.232781 -0.907108 1.26645)
(0.0355958 0.12997 -0.826275 0.150765 -0.526423 0.76894)
(0.142721 0.0488489 -0.450619 0.079334 -0.243025 0.442938)
(0.137845 -0.0647068 0.104563 0.0631141 -0.343873 0.489902)
(0.0330682 -0.126648 0.447197 0.0912923 -0.820419 0.935946)
(-0.0726844 -0.0511815 0.333786 0.187785 -1.33987 1.31259)
(-0.0836666 0.0707906 -0.00332712 0.190982 -1.34985 1.19817)
(-0.0230896 0.100902 -0.210289 0.104521 -0.99009 0.95146)
(0.0437715 0.0614559 -0.174481 0.104773 -0.63145 0.563281)
(0.0643863 -0.00151653 0.0649913 0.084088 -0.481351 0.463468)
(0.0247727 -0.0391647 0.248269 0.0887581 -0.616264 0.626466)
(-0.0124417 -0.0286206 0.218733 0.110725 -0.795148 0.831298)
(-0.00773612 -0.0175329 0.152802 0.128967 -0.805021 0.830401)
(-0.0137578 -0.0338519 0.175272 0.143365 -0.88984 0.895478)
(-0.0516973 -0.014652 0.0828607 0.160336 -1.08221 1.06209)
(-0.063675 0.0421586 -0.153604 0.14811 -1.05486 1.05984)
(-0.013431 0.0680316 -0.344138 0.0727215 -0.746561 0.917202)
(0.0699802 0.0267644 -0.268149 0.0876577 -0.417108 0.552998)
(0.0998301 -0.0651505 0.0969531 0.0933353 -0.353386 0.517279)
(0.0270596 -0.128269 0.385164 0.151294 -0.712974 0.898808)
(-0.0541796 -0.0546286 0.284091 0.221421 -1.16476 1.35388)
(-0.040649 0.0534829 0.0530576 0.224632 -1.16787 1.28118)
(0.0228677 0.0820474 0.0406308 0.164527 -0.93522 1.05683)
(0.0510568 0.0616827 0.226503 0.108498 -0.618571 0.793166)
(0.0111333 0.0293713 0.4148 0.0977118 -0.454891 0.467343)
(-0.0777589 0.0175779 0.322561 0.0988869 -0.402083 0.0572196)
(-0.248784 0.0107902 -0.151471 0.110424 -0.39297 -0.114708)
(-0.858435 -0.00383146 -0.643173 0.0842066 -0.842946 2.2037)
(-0.835993 -0.084559 0.524409 0.165114 -1.20661 1.98426)
(-0.285317 0.00422368 -0.0249775 0.324652 -0.733604 1.28483)
(-0.109779 0.105729 -0.573648 0.254084 -0.700223 1.20096)
(0.0279069 0.127135 -0.701488 0.134588 -0.405715 0.882171)
(0.119891 0.046418 -0.397266 0.0442143 -0.204298 0.635134)
(0.118377 -0.0648716 0.0644743 0.0464436 -0.309421 0.640063)
(0.034566 -0.124559 0.359201 0.123667 -0.72573 0.928846)
(-0.053264 -0.0576055 0.302161 0.238424 -1.15108 1.19106)
(-0.0698562 0.0545825 0.0466198 0.216456 -1.17609 1.18734)
(-0.0246249 0.0952756 -0.139239 0.116803 -0.892983 1.02848)
(0.0331496 0.0647901 -0.125961 0.0738064 -0.555317 0.740426)
(0.0540459 0.00021074 0.0608666 0.0569245 -0.431206 0.616266)
(0.0222502 -0.0404801 0.214193 0.0895673 -0.536712 0.713345)
(-0.0100703 -0.031324 0.196799 0.126255 -0.690405 0.872011)
(-0.00815554 -0.0194227 0.142238 0.122714 -0.708234 0.916804)
(-0.0136227 -0.0351896 0.147592 0.139616 -0.780564 0.972558)
(-0.0451481 -0.0179021 0.0665864 0.182904 -0.932659 1.07502)
(-0.056569 0.0356622 -0.133843 0.166472 -0.908707 1.09832)
(-0.0150561 0.0693911 -0.302865 0.081077 -0.670503 1.00108)
(0.0564053 0.0358839 -0.251245 0.0557298 -0.353888 0.729727)
(0.0842346 -0.0569655 0.0415142 0.0689269 -0.298694 0.655893)
(0.030254 -0.118683 0.281509 0.160653 -0.588021 0.907535)
(-0.0333357 -0.0550719 0.245999 0.268863 -0.952604 1.21123)
(-0.0270244 0.0435865 0.0985822 0.248713 -0.972479 1.24678)
(0.0221639 0.0759665 0.102479 0.17457 -0.798695 1.11058)
(0.0453721 0.0619423 0.270217 0.090092 -0.537505 0.915265)
(0.00855782 0.0337809 0.433001 0.07166 -0.39369 0.592036)
(-0.0710957 0.0231859 0.343006 0.0769548 -0.331009 0.164686)
(-0.240217 0.0214865 -0.0733981 0.106585 -0.314527 -0.0554648)
(-0.817561 0.0068637 -0.587105 0.188227 -0.736695 1.93591)
(-0.688908 -0.0807662 0.360233 0.27257 -1.03874 1.42426)
(-0.221833 -0.00166597 -0.0957824 0.323219 -0.4856 1.06545)
(-0.0831625 0.0859531 -0.484527 0.256154 -0.501509 1.10524)
(0.0218144 0.11166 -0.583765 0.116657 -0.30983 0.960385)
(0.0972661 0.0418718 -0.346205 0.0352918 -0.186369 0.761598)
(0.0987983 -0.0565887 0.0295366 0.0535119 -0.280952 0.730895)
(0.0341953 -0.111183 0.277905 0.153305 -0.618991 0.899445)
(-0.0361188 -0.0590103 0.262439 0.266345 -0.960463 1.06669)
(-0.0551717 0.0365795 0.079843 0.242784 -1.00073 1.10965)
(-0.023505 0.0803261 -0.0754317 0.142392 -0.788797 1.01924)
(0.0237504 0.0597375 -0.0799689 0.0623351 -0.508456 0.839076)
(0.0431516 0.00385375 0.0603898 0.0514546 -0.394517 0.704118)
(0.0186281 -0.0353806 0.181445 0.0951835 -0.46194 0.75676)
(-0.00804599 -0.0314024 0.170811 0.146255 -0.583309 0.856956)
(-0.008253 -0.0214314 0.12704 0.141298 -0.616621 0.911293)
(-0.0133547 -0.0324065 0.120321 0.158347 -0.676385 0.958789)
(-0.0386754 -0.0177939 0.0498391 0.203484 -0.781775 1.02858)
(-0.0485446 0.0279333 -0.11713 0.180795 -0.764083 1.07021)
(-0.015003 0.0629945 -0.26155 0.102063 -0.589874 0.998844)
(0.0436099 0.0390235 -0.229356 0.0430149 -0.319899 0.831684)
(0.0686928 -0.0430933 -0.00453186 0.065584 -0.256191 0.734413)
(0.0317748 -0.0980836 0.19247 0.172242 -0.467404 0.878814)
(-0.0152674 -0.0506346 0.207225 0.289103 -0.744235 1.07665)
(-0.0134757 0.0310629 0.131151 0.26782 -0.779761 1.16309)
(0.0234111 0.0629532 0.157247 0.193598 -0.65874 1.09057)
(0.0411961 0.0566847 0.314917 0.096672 -0.474317 0.947968)
(0.00659934 0.037086 0.459395 0.0682379 -0.344249 0.64457)
(-0.0637437 0.0302132 0.374835 0.0685693 -0.27687 0.221385)
(-0.227936 0.0350335 0.0107837 0.10848 -0.248932 -0.0337965)
(-0.780548 0.0250196 -0.51598 0.266334 -0.564807 1.72371)
(-0.543446 -0.0699583 0.204152 0.354165 -0.816542 0.882177)
(-0.163447 -0.00343218 -0.167399 0.296004 -0.275014 0.884599)
(-0.0575782 0.0647997 -0.414452 0.242592 -0.322896 1.00956)
(0.0176563 0.0913274 -0.481906 0.113776 -0.240897 0.985142)
(0.0772235 0.0379525 -0.298521 0.0560644 -0.168147 0.816366)
(0.0806478 -0.0449233 0.00332847 0.0803042 -0.24263 0.771256)
(0.032172 -0.0936891 0.208767 0.179737 -0.502956 0.861186)
(-0.0223968 -0.0563304 0.220537 0.282437 -0.773094 0.951394)
(-0.0416363 0.0200342 0.096766 0.268074 -0.822272 1.00133)
(-0.0209046 0.0597773 -0.0263577 0.17684 -0.673249 0.954242)
(0.0166371 0.0491145 -0.0410992 0.0786636 -0.466653 0.852803)
(0.0335873 0.00740898 0.063343 0.0669093 -0.356427 0.72656)
(0.0145056 -0.0264454 0.154467 0.110014 -0.390237 0.755765)
(-0.00695374 -0.0273272 0.144786 0.170311 -0.471225 0.807244)
(-0.00818777 -0.021742 0.108744 0.177805 -0.508096 0.841241)
(-0.0128378 -0.0287943 0.0955504 0.193245 -0.556576 0.88162)
(-0.0328825 -0.0177906 0.03422 0.223553 -0.630854 0.947292)
(-0.0407834 0.01995 -0.10456 0.19553 -0.628938 0.995087)
(-0.0138394 0.0527708 -0.225312 0.133637 -0.501272 0.935034)
(0.0330719 0.0383302 -0.20635 0.0586382 -0.291574 0.84844)
(0.0551064 -0.0264517 -0.0372083 0.0817845 -0.210332 0.754068)
(0.0317674 -0.0733347 0.125176 0.186705 -0.346673 0.828349)
(-0.00122264 -0.0428428 0.172304 0.29628 -0.545182 0.956826)
(-0.00152405 0.019361 0.15359 0.283407 -0.590595 1.05832)
(0.0259804 0.047313 0.201354 0.21292 -0.51163 1.03279)
(0.0389555 0.0475623 0.356165 0.121675 -0.398478 0.916321)
(0.00571469 0.0373367 0.490514 0.0824005 -0.293582 0.644661)
(-0.0567016 0.0348221 0.413657 0.076019 -0.231223 0.23171)
(-0.212051 0.0417654 0.0931912 0.114794 -0.189663 -0.0372738)
(-0.755546 0.0389459 -0.439395 0.296306 -0.357526 1.62815)
(-0.414887 -0.0573084 0.0750758 0.401545 -0.565767 0.425947)
(-0.113252 -0.00159289 -0.230761 0.25559 -0.106206 0.747072)
(-0.0355118 0.047773 -0.360221 0.223722 -0.173622 0.926279)
(0.0152819 0.0725511 -0.396402 0.137789 -0.172908 0.950253)
(0.0605587 0.0347979 -0.252931 0.0996567 -0.126254 0.815565)
(0.0644463 -0.0336666 -0.0139634 0.117979 -0.182531 0.781472)
(0.0289944 -0.0761224 0.15235 0.203599 -0.378356 0.825018)
(-0.0122489 -0.0511689 0.180599 0.293653 -0.588564 0.854647)
(-0.030589 0.00620319 0.101013 0.289129 -0.637289 0.895794)
(-0.017692 0.0378843 0.00547249 0.212475 -0.539146 0.866738)
(0.012276 0.0356303 -0.0122211 0.119226 -0.405099 0.797202)
(0.0263715 0.00929297 0.0682614 0.0980598 -0.303555 0.697063)
(0.0106723 -0.0162034 0.135141 0.137931 -0.310458 0.712223)
(-0.00688353 -0.0199532 0.123081 0.196771 -0.348293 0.741698)
(-0.00845337 -0.019869 0.0900282 0.216798 -0.374378 0.750064)
(-0.0123935 -0.0260682 0.0729927 0.229573 -0.413579 0.783901)
(-0.0279522 -0.0189686 0.018394 0.243822 -0.474796 0.851554)
(-0.0336978 0.0127385 -0.0964963 0.218868 -0.494256 0.886266)
(-0.0119094 0.0420844 -0.195921 0.171398 -0.394915 0.835259)
(0.0254129 0.0354148 -0.184059 0.100048 -0.243473 0.792324)
(0.0443163 -0.0105251 -0.0551191 0.110636 -0.149341 0.730976)
(0.0305219 -0.0489371 0.0785763 0.201423 -0.22084 0.774045)
(0.00857652 -0.0332339 0.143919 0.29845 -0.354329 0.858296)
(0.00801365 0.00922958 0.166828 0.294714 -0.401251 0.960254)
(0.0290869 0.0313954 0.234747 0.227819 -0.364033 0.966907)
(0.0384973 0.0363574 0.390789 0.147464 -0.302398 0.864163)
(0.00584775 0.0350728 0.52228 0.104068 -0.231652 0.615394)
(-0.052074 0.0361879 0.452668 0.0988731 -0.18014 0.207934)
(-0.197091 0.0375422 0.156698 0.122919 -0.127693 -0.0460084)
(-0.747682 0.037851 -0.379539 0.276125 -0.156889 1.66197)
(-0.312729 -0.0420005 -0.0225243 0.419081 -0.305806 0.0865978)
(-0.0729736 0.00413641 -0.274958 0.213659 0.0224529 0.65183)
(-0.018052 0.0392617 -0.316275 0.208808 -0.0442883 0.859028)
(0.0138979 0.0588475 -0.324487 0.183013 -0.0775543 0.879197)
(0.04696 0.0306779 -0.209613 0.151569 -0.0473144 0.794158)
(0.0503485 -0.0250419 -0.0244341 0.157732 -0.0964655 0.785199)
(0.0251591 -0.0602114 0.106708 0.224174 -0.244979 0.805594)
(-0.00539524 -0.0451094 0.144138 0.302881 -0.404194 0.78596)
(-0.0224197 -0.0051016 0.0956759 0.304806 -0.446892 0.813913)
(-0.0145033 0.018071 0.0193093 0.240726 -0.387484 0.790769)
(0.0104465 0.021327 0.00492752 0.165374 -0.308236 0.71604)
(0.0219092 0.00908865 0.0732115 0.134629 -0.226144 0.641702)
(0.00770735 -0.00646639 0.123295 0.171446 -0.208187 0.649977)
(-0.00766436 -0.0116809 0.107628 0.221835 -0.210568 0.679533)
(-0.00938266 -0.0167152 0.0730806 0.24643 -0.219701 0.673721)
(-0.0123218 -0.0241925 0.0517598 0.256026 -0.251914 0.70106)
(-0.0238036 -0.0200245 0.00134654 0.262336 -0.309261 0.760117)
(-0.0273249 0.00682583 -0.0922125 0.249958 -0.342491 0.762552)
(-0.00951092 0.0323308 -0.172631 0.205233 -0.26548 0.735346)
(0.0205314 0.0313408 -0.163427 0.14872 -0.158173 0.705617)
(0.0364264 0.00218041 -0.0602221 0.142096 -0.06653 0.690083)
(0.0284685 -0.0272124 0.0500983 0.214106 -0.0889396 0.729891)
(0.0144127 -0.0229277 0.123157 0.298699 -0.168953 0.788227)
(0.0147302 0.000424877 0.172153 0.302332 -0.211674 0.884926)
(0.0322858 0.015251 0.25664 0.238527 -0.214177 0.909503)
(0.0397136 0.02468 0.417762 0.161919 -0.196643 0.823319)
(0.00687578 0.0325633 0.55213 0.123397 -0.156159 0.586804)
(-0.0511365 0.0352402 0.485598 0.128822 -0.110361 0.181734)
(-0.189229 0.0252687 0.180201 0.132211 -0.0582153 -0.0321244)
(-0.759975 0.0161761 -0.362814 0.227815 0.00151212 1.79446)
(-0.242306 -0.0223488 -0.0843599 0.41542 -0.0493887 -0.127695)
(-0.0442107 0.0142527 -0.293547 0.178064 0.120555 0.5912)
(-0.00603083 0.0402662 -0.273778 0.197899 0.0756096 0.81857)
(0.0121352 0.0505478 -0.262931 0.223089 0.0581458 0.829681)
(0.0356756 0.0243545 -0.171556 0.19449 0.0666596 0.79244)
(0.0385758 -0.0194478 -0.0310781 0.191562 0.0139197 0.803889)
(0.0210659 -0.0463052 0.0707018 0.24059 -0.102869 0.811652)
(-0.00155022 -0.0390211 0.110884 0.3086 -0.217271 0.75651)
(-0.0169599 -0.0148987 0.0819933 0.312917 -0.252202 0.770974)
(-0.0116102 0.00108609 0.0181551 0.255902 -0.225174 0.749206)
(0.0106118 0.00766683 0.0102105 0.195463 -0.1804 0.659097)
(0.020173 0.00723063 0.0761343 0.160558 -0.122895 0.59647)
(0.00589664 0.00195467 0.117717 0.19366 -0.0830369 0.607942)
(-0.00906561 -0.00400158 0.097954 0.237944 -0.0584522 0.642346)
(-0.0109978 -0.0133393 0.058633 0.262093 -0.0528031 0.631928)
(-0.0125964 -0.0226297 0.0317117 0.268388 -0.0804362 0.652299)
(-0.0203414 -0.0195828 -0.0157288 0.271669 -0.133823 0.695729)
(-0.0218087 0.00180543 -0.0909785 0.269843 -0.165521 0.668713)
(-0.00682837 0.0232822 -0.154677 0.222871 -0.1179 0.667518)
(0.0180369 0.0271207 -0.144712 0.181188 -0.0383446 0.640384)
(0.0312414 0.0113793 -0.0561727 0.164377 0.0373299 0.659479)
(0.0261056 -0.00836316 0.0371912 0.222037 0.0481601 0.706907)
(0.0167348 -0.0125012 0.110465 0.2975 0.0132008 0.75268)
(0.0183338 -0.00715708 0.171261 0.30547 -0.021699 0.844187)
(0.035309 -0.00140842 0.26617 0.243929 -0.0606929 0.873834)
(0.0427676 0.0129263 0.436801 0.165602 -0.0909189 0.800494)
(0.00871227 0.0316408 0.580785 0.134509 -0.0728206 0.574004)
(-0.0541273 0.0346787 0.514633 0.154227 -0.018889 0.178084)
(-0.196127 0.0125172 0.180431 0.149385 0.0221372 0.004198)
(-0.790549 -0.0155462 -0.382571 0.184244 0.114826 1.95246)
(-0.206728 -0.000338593 -0.105209 0.39626 0.196194 -0.217193)
(-0.0286719 0.0268835 -0.278679 0.151372 0.197777 0.568269)
(0.000213207 0.0474945 -0.225051 0.184945 0.188907 0.81868)
(0.00875029 0.046344 -0.209098 0.232353 0.217501 0.855091)
(0.0259915 0.0174502 -0.14256 0.217372 0.203625 0.837808)
(0.0293364 -0.0156706 -0.0361905 0.214293 0.143575 0.851338)
(0.0169968 -0.0344099 0.0431603 0.25291 0.0476902 0.846622)
(-0.000469259 -0.033483 0.0799817 0.308405 -0.0291197 0.777244)
(-0.013979 -0.0237571 0.0594923 0.311919 -0.056953 0.778278)
(-0.00908893 -0.0144069 0.00566545 0.258266 -0.0595712 0.746371)
(0.0123302 -0.00550231 0.00459148 0.197358 -0.0409408 0.654609)
(0.0209477 0.00446818 0.0750067 0.161477 -0.00725386 0.595303)
(0.00535828 0.00954728 0.117024 0.193468 0.0499838 0.613148)
(-0.0109058 0.0033763 0.0933419 0.238909 0.100268 0.645833)
(-0.0132197 -0.0101105 0.0464729 0.263379 0.118393 0.631722)
(-0.0130529 -0.0213709 0.0131207 0.266592 0.0930214 0.644074)
(-0.0175529 -0.0187317 -0.031022 0.264861 0.0432113 0.676058)
(-0.0173348 -0.00283672 -0.0925329 0.258966 0.0183691 0.64788)
(-0.00388547 0.0151445 -0.14245 0.218408 0.0332314 0.645377)
(0.0176086 0.0233199 -0.127559 0.182876 0.0951384 0.629041)
(0.028504 0.0188701 -0.0456536 0.168452 0.151927 0.660248)
(0.0237873 0.00873112 0.0378039 0.223279 0.188173 0.711387)
(0.0159348 -0.00225003 0.106004 0.294431 0.193605 0.754826)
(0.0187155 -0.0140456 0.165624 0.303015 0.167854 0.844784)
(0.0379718 -0.0180785 0.263129 0.240493 0.0931514 0.871657)
(0.0479278 0.00149885 0.447233 0.162238 0.0123064 0.794671)
(0.0118479 0.0324379 0.609886 0.137949 0.0129457 0.579323)
(-0.0594921 0.0373635 0.54389 0.168946 0.0852338 0.211509)
(-0.215812 0.00462102 0.17357 0.178252 0.12148 0.0578803)
(-0.834641 -0.0414302 -0.437695 0.168917 0.203226 2.09504)
(-0.20514 0.0184476 -0.0850598 0.364245 0.426074 -0.187434)
(-0.025989 0.039246 -0.229182 0.134332 0.261093 0.5784)
(0.000785473 0.0556494 -0.167583 0.169776 0.292946 0.857707)
(0.00346639 0.0442775 -0.160952 0.208952 0.367163 0.959028)