/*--------------------------------*- C++ -*----------------------------------*\
| =========                 |                                                 |
| \\      /  F ield         | OpenFOAM: The Open Source CFD Toolbox           |
|  \\    /   O peration     | Version:  2106                                  |
|   \\  /    A nd           | Website:  www.openfoam.com                      |
|    \\/     M anipulation  |                                                 |
\*---------------------------------------------------------------------------*/
FoamFile
{
    version     2.0;
    format      ascii;
    arch        "LSB;label=32;scalar=64";
    class       volSymmTensorField;
    location    "482";
    object      sigma;
}
// * * * * * * * * * * * * * * * * * * * * * * * * * * * * * * * * * * * * * //

dimensions      [1 -1 -2 0 0 0 0];

internalField   nonuniform List<symmTensor> 
9000
(
(-1.46717e+09 8.8601e+07 -5.80684e+08 -8.14797e+08 -3.67911e+08 -8.60572e+09)
(-4.76202e+09 -2.6109e+06 -4.25366e+08 -1.69255e+09 -6.85418e+08 -1.46789e+10)
(-3.54013e+09 -3.91193e+07 3.48271e+08 -1.19977e+09 -6.67752e+08 -1.0792e+10)
(-1.43188e+09 -2.75015e+07 4.45262e+08 -4.785e+08 -2.80102e+08 -4.18196e+09)
(-4.19943e+07 -9.24253e+06 1.08961e+07 -1.80904e+06 -3.77455e+07 1.03851e+08)
(-1.04544e+08 2.01848e+07 -5.58669e+08 -2.47854e+07 -4.86372e+07 -8.84191e+07)
(-1.73187e+09 4.23331e+07 -9.58425e+08 -5.94639e+08 -2.86697e+08 -5.2168e+09)
(-3.90242e+09 5.99609e+06 -5.4421e+08 -1.3799e+09 -5.7698e+08 -1.18943e+10)
(-3.52963e+09 -3.87054e+07 1.57221e+08 -1.19933e+09 -7.74458e+08 -1.08761e+10)
(-2.39334e+09 -2.31382e+07 4.98226e+08 -7.57807e+08 -7.07772e+08 -7.29902e+09)
(-1.16202e+09 1.7373e+06 4.46442e+08 -3.66256e+08 -3.93289e+08 -3.35925e+09)
(-6.0113e+08 9.44599e+06 2.90322e+07 -1.92795e+08 -1.94159e+08 -1.60728e+09)
(-1.16888e+09 9.09465e+06 -3.1196e+08 -4.12548e+08 -2.69319e+08 -3.56528e+09)
(-1.96684e+09 1.78955e+06 -6.4259e+07 -6.74005e+08 -4.46001e+08 -6.08908e+09)
(-1.79386e+09 -330534 9.40987e+07 -5.85143e+08 -4.61537e+08 -5.2956e+09)
(-1.99935e+09 8.141e+06 -2.70643e+08 -6.33287e+08 -5.05904e+08 -5.77002e+09)
(-2.85594e+09 6.29454e+06 -3.17015e+08 -9.40921e+08 -6.36459e+08 -8.58651e+09)
(-2.93969e+09 -1.6202e+07 8.04556e+07 -1.01002e+09 -6.50611e+08 -9.04523e+09)
(-2.11223e+09 -1.62139e+07 4.4563e+08 -6.78521e+08 -6.11841e+08 -6.53998e+09)
(-8.62869e+08 3.5079e+06 4.41162e+08 -2.63753e+08 -2.95192e+08 -2.45748e+09)
(-4.24497e+08 2.15264e+07 -1.33367e+08 -1.08587e+08 -1.23955e+08 -9.13578e+08)
(-1.77028e+09 4.32777e+07 -6.903e+08 -5.89995e+08 -3.16557e+08 -5.22545e+09)
(-3.85259e+09 8.13641e+06 -3.05684e+08 -1.37336e+09 -5.09798e+08 -1.17048e+10)
(-3.18112e+09 -3.27278e+07 3.90478e+08 -1.09136e+09 -6.41279e+08 -9.78984e+09)
(-2.24919e+09 -1.99974e+07 5.92783e+08 -7.59642e+08 -5.33284e+08 -6.75501e+09)
(-1.48205e+09 -8.20989e+06 5.43025e+08 -4.95217e+08 -3.49441e+08 -4.27715e+09)
(-1.2157e+09 -2.52544e+06 1.98527e+08 -3.9745e+08 -2.55056e+08 -3.38821e+09)
(-1.85935e+09 1.61346e+06 -1.25227e+08 -6.14672e+08 -3.81145e+08 -5.52202e+09)
(-2.24473e+09 1.70432e+07 5.39305e+07 -7.72537e+08 -4.41482e+08 -6.75029e+09)
(-3.68646e+07 9.51237e+06 1.40833e+07 -4.65121e+07 4.40972e+07 -5.26458e+08)
(-7.27312e+08 2.03374e+08 -2.61669e+08 -4.05773e+08 -4.3103e+08 -4.45903e+09)
(-2.69216e+09 2.10634e+07 -3.19069e+08 -1.20858e+09 -7.29229e+08 -8.14973e+09)
(-1.97657e+09 -1.66888e+08 -3.59793e+07 -7.86604e+08 -9.41255e+08 -6.05964e+09)
(-6.51153e+08 -1.45507e+08 1.85781e+07 -2.13597e+08 -4.58434e+08 -2.10653e+09)
(2.38246e+08 -5.13985e+07 -1.41916e+08 1.85962e+08 -1.6603e+08 4.89729e+08)
(2.07234e+08 8.86702e+07 -3.48222e+08 1.73678e+08 -1.83262e+08 4.03332e+08)
(-8.21646e+08 1.87891e+08 -5.07431e+08 -3.06758e+08 -4.06581e+08 -2.68359e+09)
(-2.13642e+09 5.70004e+07 -2.89986e+08 -9.58858e+08 -6.6828e+08 -6.53222e+09)
(-1.97998e+09 -1.19849e+08 2.31306e+07 -7.93911e+08 -1.19287e+09 -6.17795e+09)
(-1.36394e+09 -1.08118e+08 2.14961e+08 -4.49633e+08 -1.2398e+09 -4.33326e+09)
(-5.28448e+08 -3.955e+07 2.2183e+08 -1.2233e+08 -7.7628e+08 -1.75416e+09)
(-1.44222e+08 2.45112e+07 2.03278e+07 1.64661e+07 -4.27321e+08 -5.75149e+08)
(-5.38084e+08 5.67619e+07 -1.47686e+08 -2.07943e+08 -4.95567e+08 -1.85151e+09)
(-1.04872e+09 1.72791e+07 2.58293e+07 -4.11744e+08 -7.19226e+08 -3.42187e+09)
(-8.95595e+08 -3.22789e+06 1.09691e+08 -2.77803e+08 -8.11197e+08 -2.80786e+09)
(-1.02127e+09 4.59382e+07 -1.46002e+08 -3.04079e+08 -8.79205e+08 -3.07749e+09)
(-1.60731e+09 3.95843e+07 -2.08431e+08 -6.10914e+08 -9.9756e+08 -4.91478e+09)
(-1.70378e+09 -5.18864e+07 -6.8174e+06 -7.2914e+08 -1.04848e+09 -5.29557e+09)
(-1.21172e+09 -8.61173e+07 2.01247e+08 -4.14252e+08 -1.06371e+09 -3.93104e+09)
(-3.42532e+08 -3.46279e+07 2.31963e+08 -4.27536e+07 -5.98711e+08 -1.22202e+09)
(-5.85098e+06 7.13457e+07 -2.45679e+07 1.12744e+08 -2.97481e+08 -1.04706e+08)
(-8.15903e+08 1.79902e+08 -2.929e+08 -2.65768e+08 -4.77166e+08 -2.60774e+09)
(-2.0579e+09 5.22251e+07 -1.14896e+08 -9.28577e+08 -5.25614e+08 -6.29983e+09)
(-1.68028e+09 -1.13394e+08 2.33798e+08 -6.57643e+08 -9.56898e+08 -5.33398e+09)
(-1.12597e+09 -8.83313e+07 3.65277e+08 -3.99031e+08 -9.0028e+08 -3.59549e+09)
(-6.76221e+08 -4.33447e+07 3.85816e+08 -2.16109e+08 -6.24079e+08 -2.15486e+09)
(-6.00177e+08 5.47887e+06 2.16939e+08 -2.1625e+08 -4.72483e+08 -1.76182e+09)
(-1.1305e+09 2.98996e+07 -1.91079e+07 -4.72603e+08 -5.88323e+08 -3.30592e+09)
(-1.4481e+09 1.83817e+06 -8.59246e+07 -6.65565e+08 -6.48241e+08 -4.12968e+09)
(2.39059e+08 -3.21175e+07 -1.83702e+08 3.32948e+08 7.51371e+07 8.07423e+08)
(-2.28459e+08 2.23303e+08 4.15264e+07 -1.36817e+08 -5.24298e+08 -1.36188e+09)
(-1.33647e+09 3.37457e+07 -2.28273e+08 -9.03403e+08 -8.16563e+08 -3.63094e+09)
(-9.81272e+08 -1.73797e+08 -3.37775e+08 -5.67129e+08 -1.04189e+09 -2.92175e+09)
(-1.51347e+08 -1.55679e+08 -3.10934e+08 -6.88236e+07 -5.92443e+08 -7.93435e+08)
(4.13686e+08 -5.36437e+07 -2.54894e+08 2.8838e+08 -2.95852e+08 6.42395e+08)
(4.02356e+08 9.93178e+07 -1.71818e+08 2.81258e+08 -3.21859e+08 6.25237e+08)
(-2.27037e+08 2.05008e+08 -1.35938e+08 -1.45658e+08 -5.26219e+08 -9.96783e+08)
(-9.71291e+08 6.33547e+07 -9.62156e+07 -7.12107e+08 -7.91227e+08 -2.85744e+09)
(-1.03525e+09 -1.16126e+08 -9.8632e+07 -6.14954e+08 -1.32419e+09 -3.16164e+09)
(-8.02237e+08 -1.10509e+08 -3.37554e+06 -3.54181e+08 -1.30999e+09 -2.64902e+09)
(-2.04411e+08 -4.68763e+07 7.13883e+07 -3.76026e+07 -9.02899e+08 -9.59894e+08)
(1.04916e+08 2.89919e+07 3.05643e+07 1.10017e+08 -5.76555e+08 -5.56811e+07)
(-1.63803e+08 6.76946e+07 -1.72471e+07 -9.89172e+07 -6.23243e+08 -8.27667e+08)
(-4.96469e+08 1.6827e+07 8.83423e+07 -2.87697e+08 -8.13488e+08 -1.75919e+09)
(-3.76502e+08 -7.7197e+06 1.1708e+08 -1.4629e+08 -9.37675e+08 -1.33504e+09)
(-4.48357e+08 5.44657e+07 -4.14991e+07 -1.65816e+08 -1.00678e+09 -1.46318e+09)
(-8.44774e+08 4.80084e+07 -1.16811e+08 -4.63864e+08 -1.09527e+09 -2.57525e+09)
(-9.54362e+08 -4.89928e+07 -8.27023e+07 -5.89977e+08 -1.16995e+09 -2.92972e+09)
(-7.21544e+08 -9.25209e+07 9.94892e+06 -3.22815e+08 -1.11293e+09 -2.45286e+09)
(-6.82648e+07 -4.50639e+07 9.18664e+07 4.72012e+07 -7.07941e+08 -6.26829e+08)
(2.52263e+08 7.35039e+07 7.82093e+07 2.2582e+08 -4.37914e+08 3.23891e+08)
(-1.91327e+08 1.91315e+08 3.11015e+07 -8.6275e+07 -6.04574e+08 -8.61159e+08)
(-8.52039e+08 5.51181e+07 2.86536e+07 -6.49152e+08 -6.50419e+08 -2.55244e+09)
(-7.31478e+08 -1.21279e+08 8.85198e+07 -4.37424e+08 -1.10072e+09 -2.39786e+09)
(-4.52449e+08 -9.35662e+07 1.80299e+08 -2.31114e+08 -1.04917e+09 -1.66689e+09)
(-2.04277e+08 -4.53123e+07 2.69359e+08 -8.40659e+07 -7.60756e+08 -9.25316e+08)
(-2.22698e+08 1.10621e+07 2.32003e+08 -1.20229e+08 -6.15563e+08 -7.85047e+08)
(-7.08406e+08 3.95231e+07 5.7819e+07 -4.27389e+08 -6.694e+08 -1.97689e+09)
(-1.00683e+09 390446 -1.68734e+08 -6.47994e+08 -6.9588e+08 -2.56439e+09)
(4.45239e+08 -4.31892e+07 -3.3883e+08 5.88096e+08 -4.89948e+07 1.88053e+09)
(1.44503e+08 1.87255e+08 2.89045e+08 2.83471e+08 -6.60073e+08 8.32864e+08)
(-3.29644e+08 4.05349e+07 -1.38234e+08 -2.58809e+08 -9.59341e+08 -6.21876e+08)
(-2.13462e+08 -1.21774e+08 -5.34452e+08 -8.54646e+07 -1.07918e+09 -7.9726e+08)
(2.19786e+08 -1.13713e+08 -5.37325e+08 1.86114e+08 -6.74386e+08 2.95591e+07)
(5.19046e+08 -3.7065e+07 -3.29873e+08 3.91416e+08 -3.88637e+08 6.30937e+08)
(5.18409e+08 7.94817e+07 -3.83646e+07 3.92798e+08 -4.21001e+08 6.47805e+08)
(2.21458e+08 1.57203e+08 1.37212e+08 1.44582e+08 -6.34209e+08 1.08057e+08)
(-9.69894e+07 4.96398e+07 4.92321e+07 -1.84571e+08 -9.57394e+08 -4.26878e+08)
(-3.02002e+08 -6.88761e+07 -1.64293e+08 -1.67777e+08 -1.35207e+09 -1.12421e+09)
(-3.23894e+08 -7.29136e+07 -1.47938e+08 -7.13999e+07 -1.19888e+09 -1.41369e+09)
(3.58243e+07 -4.07331e+07 -3.56826e+07 1.3757e+08 -8.93975e+08 -4.90501e+08)
(2.65249e+08 2.49224e+07 4.29475e+07 2.52741e+08 -6.48354e+08 1.67888e+08)
(1.13542e+08 5.91092e+07 8.43341e+07 1.13789e+08 -6.79467e+08 -1.97593e+08)
(-6.00835e+07 9.32834e+06 1.30772e+08 -4.79595e+06 -8.28707e+08 -6.23285e+08)
(1.68666e+07 -1.22716e+07 1.18755e+08 1.1672e+08 -9.59066e+08 -3.88818e+08)
(-1.03009e+07 4.69108e+07 4.0909e+07 1.14828e+08 -1.02686e+09 -4.12359e+08)
(-2.33986e+08 4.42708e+07 -4.37404e+07 -9.60221e+07 -1.09862e+09 -9.49763e+08)
(-3.52244e+08 -2.56201e+07 -1.29637e+08 -2.019e+08 -1.16456e+09 -1.29952e+09)
(-2.96423e+08 -6.87995e+07 -1.26202e+08 -6.01284e+07 -9.97038e+08 -1.35295e+09)
(1.34744e+08 -4.6352e+07 -1.22819e+07 2.0337e+08 -7.03658e+08 -2.87161e+08)
(4.19865e+08 4.73958e+07 1.48055e+08 3.65351e+08 -5.24597e+08 4.9327e+08)
(2.68096e+08 1.39431e+08 2.54841e+08 2.1608e+08 -7.09836e+08 2.51229e+08)
(4.25279e+07 3.90259e+07 1.31778e+08 -9.86514e+07 -8.44244e+08 -9.71849e+07)
(-1.00206e+07 -8.93298e+07 -1.11568e+07 1.88853e+07 -1.18138e+09 -4.46312e+08)
(5.59073e+07 -6.50435e+07 4.86865e+07 1.07544e+08 -1.08915e+09 -4.25257e+08)
(1.39216e+08 -3.18112e+07 1.85661e+08 1.61791e+08 -8.11875e+08 -1.88841e+08)
(4.25194e+07 1.43462e+07 2.45443e+08 7.89868e+07 -6.87334e+08 -2.44061e+08)
(-3.92879e+08 4.05648e+07 1.15376e+08 -2.33115e+08 -6.79965e+08 -1.14801e+09)
(-6.7704e+08 1.89995e+06 -2.28274e+08 -4.50589e+08 -6.72575e+08 -1.56225e+09)
(5.88496e+08 -4.32797e+07 -4.62766e+08 8.19722e+08 -2.30242e+08 2.61704e+09)
(3.97883e+08 1.26573e+08 4.60278e+08 7.01974e+08 -7.92978e+08 2.22019e+09)
(3.46225e+08 4.02242e+07 -6.05176e+07 4.0662e+08 -1.06139e+09 1.18716e+09)
(3.2689e+08 -5.17906e+07 -6.3212e+08 4.16106e+08 -1.06973e+09 5.3901e+08)
(4.72802e+08 -5.33365e+07 -6.64928e+08 4.50779e+08 -6.86593e+08 5.06193e+08)
(5.79241e+08 -1.46818e+07 -3.69249e+08 4.92075e+08 -4.13654e+08 5.56781e+08)
(5.85485e+08 4.69566e+07 4.94123e+07 5.00403e+08 -4.4609e+08 5.93504e+08)
(5.34171e+08 8.45599e+07 3.06721e+08 4.47374e+08 -6.92411e+08 7.75664e+08)
(5.0019e+08 2.77435e+07 1.48516e+08 3.69001e+08 -1.08783e+09 1.02953e+09)
(2.28216e+08 -1.47066e+07 -1.75291e+08 3.09347e+08 -1.33051e+09 1.86649e+08)
(7.8637e+07 -2.40946e+07 -2.23052e+08 2.45524e+08 -1.05733e+09 -4.40156e+08)
(2.3033e+08 -2.53244e+07 -1.07805e+08 3.27302e+08 -8.13168e+08 -1.38792e+08)
(3.74083e+08 1.71598e+07 5.10691e+07 4.01793e+08 -6.35469e+08 2.60356e+08)
(3.2216e+08 3.92113e+07 1.53318e+08 3.38551e+08 -6.67023e+08 2.15128e+08)
(2.71063e+08 -446724 1.55436e+08 2.99701e+08 -8.05453e+08 1.50997e+08)
(3.07733e+08 -1.48652e+07 1.16993e+08 3.92531e+08 -9.20477e+08 2.25571e+08)
(3.13483e+08 3.07636e+07 9.80739e+07 4.10239e+08 -9.8952e+08 2.70741e+08)
(2.27547e+08 3.41303e+07 9.555e+06 3.02907e+08 -1.06932e+09 1.49839e+08)
(1.1267e+08 379482 -1.48459e+08 2.19611e+08 -1.10424e+09 -1.68082e+08)
(7.28916e+07 -3.48588e+07 -2.10632e+08 2.33372e+08 -8.53226e+08 -4.56078e+08)
(3.01161e+08 -3.94716e+07 -9.04667e+07 3.68953e+08 -6.31426e+08 -2.20483e+07)
(5.25535e+08 1.24759e+07 1.77058e+08 5.05422e+08 -5.31453e+08 5.33998e+08)
(5.72647e+08 6.56826e+07 3.78365e+08 5.22027e+08 -7.60306e+08 8.75568e+08)
(6.40229e+08 1.62244e+07 1.94951e+08 4.69851e+08 -9.96909e+08 1.33627e+09)
(4.8966e+08 -4.41019e+07 -6.02756e+07 4.92455e+08 -1.20565e+09 7.43902e+08)
(4.2299e+08 -2.49325e+07 -2.61247e+07 4.61654e+08 -1.05552e+09 3.67141e+08)
(3.91231e+08 -1.16823e+07 1.33938e+08 4.20958e+08 -7.82722e+08 2.79491e+08)
(2.25224e+08 1.54746e+07 2.55559e+08 2.92985e+08 -6.70967e+08 4.73415e+07)
(-1.64792e+08 3.48975e+07 1.58599e+08 -1.02701e+07 -6.27462e+08 -6.37789e+08)
(-4.36373e+08 5.35828e+06 -2.52613e+08 -2.1695e+08 -6.066e+08 -9.15454e+08)
(6.66237e+08 -3.34697e+07 -5.2964e+08 1.00774e+09 -3.92926e+08 3.01193e+09)
(5.53553e+08 6.33084e+07 5.50846e+08 1.02996e+09 -8.81239e+08 2.98061e+09)
(7.44701e+08 3.44414e+07 -5.89752e+06 9.27904e+08 -1.07288e+09 2.11197e+09)
(6.83645e+08 1.12539e+07 -6.48415e+08 8.236e+08 -1.00237e+09 1.33253e+09)
(6.4815e+08 4.37544e+06 -7.11979e+08 6.72729e+08 -6.36475e+08 8.14298e+08)
(6.28215e+08 5.80734e+06 -3.79251e+08 5.84943e+08 -3.72647e+08 5.3177e+08)
(6.42059e+08 1.32937e+07 9.53774e+07 5.95411e+08 -4.05408e+08 5.92062e+08)
(7.43694e+08 1.35621e+07 3.85103e+08 6.96647e+08 -6.96246e+08 1.17285e+09)
(8.66139e+08 5.17311e+06 2.0693e+08 8.15761e+08 -1.13871e+09 1.79014e+09)
(5.95796e+08 2.64802e+07 -1.47522e+08 7.0692e+08 -1.26011e+09 1.00969e+09)
(4.05216e+08 1.83254e+07 -2.4493e+08 5.29945e+08 -9.35755e+08 3.33869e+08)
(4.05018e+08 -4.75792e+06 -1.47175e+08 4.99177e+08 -7.02357e+08 2.06826e+08)
(4.71375e+08 9.46256e+06 5.35464e+07 5.31044e+08 -5.58628e+08 3.74782e+08)
(4.90809e+08 1.53868e+07 1.89143e+08 5.29633e+08 -6.08623e+08 5.43499e+08)
(5.1774e+08 -8.86609e+06 1.6537e+08 5.61945e+08 -7.53505e+08 6.8857e+08)
(5.26831e+08 -1.49264e+07 1.14091e+08 6.28445e+08 -8.37999e+08 6.59823e+08)
(5.5353e+08 1.19761e+07 1.29886e+08 6.62914e+08 -9.08339e+08 7.42429e+08)
(5.60746e+08 2.11148e+07 4.34762e+07 6.44433e+08 -1.01103e+09 8.78232e+08)
(4.63354e+08 1.94298e+07 -1.47401e+08 5.77954e+08 -1.01343e+09 6.32174e+08)
(3.83226e+08 -2.9543e+06 -2.53622e+08 4.97769e+08 -7.33544e+08 2.84775e+08)
(4.55e+08 -2.57005e+07 -1.44083e+08 5.19558e+08 -5.29571e+08 2.66818e+08)
(6.09147e+08 -1.72107e+07 1.72122e+08 6.25214e+08 -4.69179e+08 5.91681e+08)
(7.66525e+08 -3.1882e+06 4.16201e+08 7.70709e+08 -7.39264e+08 1.21064e+09)
(9.92814e+08 -5.52661e+06 2.2324e+08 9.22554e+08 -1.056e+09 2.04299e+09)
(8.17021e+08 -3.20397e+06 -6.55939e+07 8.79286e+08 -1.15838e+09 1.43223e+09)
(6.89982e+08 1.16747e+07 -5.20068e+07 7.5865e+08 -9.64679e+08 9.11771e+08)
(5.87553e+08 8.98431e+06 1.11413e+08 6.41714e+08 -6.96364e+08 6.42626e+08)
(3.69875e+08 1.59265e+07 2.62337e+08 4.74072e+08 -5.83801e+08 2.77129e+08)
(9.53121e+06 2.5301e+07 1.86299e+08 1.79167e+08 -5.33639e+08 -2.79865e+08)
(-2.61945e+08 7.93929e+06 -2.3651e+08 -1.84719e+07 -5.14539e+08 -4.97251e+08)
(6.9929e+08 -2.00114e+07 -5.44927e+08 1.14466e+09 -5.1014e+08 3.15457e+09)
(6.3479e+08 9.99477e+06 5.69805e+08 1.23511e+09 -9.19547e+08 3.28562e+09)
(9.38555e+08 2.61221e+07 2.34906e+07 1.25315e+09 -9.92111e+08 2.44773e+09)
(9.05062e+08 5.4949e+07 -6.07981e+08 1.10229e+09 -8.89997e+08 1.77504e+09)
(7.80762e+08 4.89095e+07 -6.96592e+08 8.38445e+08 -5.46999e+08 1.06893e+09)
(6.89182e+08 2.12322e+07 -3.67482e+08 6.66856e+08 -2.94872e+08 6.1911e+08)
(7.09116e+08 -1.52445e+07 1.0751e+08 6.75473e+08 -3.36286e+08 6.99006e+08)
(8.82723e+08 -4.08413e+07 3.93711e+08 8.72889e+08 -6.59607e+08 1.42132e+09)
(1.06129e+09 -1.33135e+07 2.33327e+08 1.11301e+09 -1.1086e+09 2.10496e+09)
(8.4195e+08 4.87123e+07 -9.90909e+07 9.91479e+08 -1.15465e+09 1.5194e+09)
(6.62654e+08 4.74542e+07 -2.29022e+08 7.6161e+08 -8.30891e+08 9.42115e+08)
(5.63556e+08 1.59179e+07 -1.5774e+08 6.43487e+08 -5.94039e+08 5.58248e+08)
(5.74075e+08 3.50279e+06 5.19518e+07 6.32472e+08 -4.61449e+08 5.68858e+08)
(6.28075e+08 -5.54627e+06 1.97417e+08 6.74007e+08 -5.37892e+08 8.25127e+08)
(6.97662e+08 -1.41052e+07 1.65305e+08 7.60664e+08 -6.84972e+08 1.06605e+09)
(6.95698e+08 -1.34122e+07 1.11115e+08 8.07132e+08 -7.33449e+08 1.00031e+09)
(7.3328e+08 -4.89277e+06 1.40044e+08 8.53329e+08 -8.02601e+08 1.097e+09)
(7.90334e+08 7.86986e+06 6.03407e+07 8.9847e+08 -9.29116e+08 1.34856e+09)
(7.19876e+08 2.90768e+07 -1.35088e+08 8.46181e+08 -9.1167e+08 1.1963e+09)
(6.34565e+08 2.15529e+07 -2.65503e+08 7.15544e+08 -6.37628e+08 8.82156e+08)
(5.98425e+08 -8.77515e+06 -1.74618e+08 6.47928e+08 -4.30438e+08 5.82336e+08)
(6.93183e+08 -3.58341e+07 1.44636e+08 7.17475e+08 -3.77784e+08 7.33551e+08)
(8.91142e+08 -5.31405e+07 3.92143e+08 9.43056e+08 -6.66789e+08 1.40688e+09)
(1.168e+09 -2.2104e+07 2.26093e+08 1.2169e+09 -1.02082e+09 2.29299e+09)
(1.02344e+09 2.44244e+07 -4.08635e+07 1.14764e+09 -1.05561e+09 1.82096e+09)
(8.87069e+08 3.75415e+07 -4.31571e+07 9.7661e+08 -8.48061e+08 1.32147e+09)
(7.43814e+08 2.58622e+07 1.12093e+08 8.06772e+08 -5.90204e+08 9.59798e+08)
(4.99897e+08 1.6632e+07 2.67823e+08 6.08056e+08 -4.72718e+08 5.30585e+08)
(1.49053e+08 1.62891e+07 2.02809e+08 3.14227e+08 -4.26484e+08 1.15403e+07)
(-1.35171e+08 7.52089e+06 -1.93699e+08 1.2255e+08 -4.15511e+08 -2.15725e+08)
(6.95552e+08 -1.08782e+07 -5.11823e+08 1.22284e+09 -5.75403e+08 3.10834e+09)
(6.57818e+08 -2.78038e+07 5.3293e+08 1.32352e+09 -9.20251e+08 3.25303e+09)
(9.98608e+08 1.74053e+07 3.25015e+07 1.39935e+09 -8.5271e+08 2.43165e+09)
(1.0279e+09 7.6286e+07 -5.38188e+08 1.26154e+09 -7.55966e+08 1.98328e+09)
(8.7907e+08 7.67597e+07 -6.39268e+08 9.52888e+08 -4.4817e+08 1.28094e+09)
(7.65799e+08 3.0387e+07 -3.40556e+08 7.38521e+08 -2.17557e+08 8.11971e+08)
(7.85204e+08 -3.48049e+07 9.55169e+07 7.44301e+08 -2.73975e+08 8.88327e+08)
(9.65814e+08 -7.33406e+07 3.58693e+08 9.8322e+08 -6.11233e+08 1.56041e+09)
(1.14143e+09 -2.64082e+07 2.3766e+08 1.27222e+09 -1.02541e+09 2.16029e+09)
(9.95868e+08 5.38987e+07 -4.69483e+07 1.16972e+09 -1.03558e+09 1.81436e+09)
(8.45408e+08 6.34498e+07 -1.90457e+08 9.31794e+08 -7.43149e+08 1.36954e+09)
(6.98973e+08 3.22605e+07 -1.45485e+08 7.59565e+08 -5.01555e+08 8.83971e+08)
(6.74518e+08 8679.37 4.82957e+07 7.10637e+08 -3.79857e+08 8.06566e+08)
(7.33261e+08 -1.96764e+07 1.8786e+08 7.77976e+08 -4.75607e+08 1.05015e+09)
(8.22218e+08 -1.70993e+07 1.59202e+08 8.97452e+08 -6.11758e+08 1.32079e+09)
(8.25197e+08 -1.19607e+07 1.08042e+08 9.30657e+08 -6.30479e+08 1.27868e+09)
(8.66384e+08 -1.69331e+07 1.34223e+08 9.83164e+08 -6.95164e+08 1.37484e+09)
(9.3719e+08 -3.20267e+06 6.31352e+07 1.06626e+09 -8.34222e+08 1.63213e+09)
(8.93501e+08 3.10529e+07 -1.19282e+08 1.0283e+09 -8.12653e+08 1.56269e+09)
(8.16462e+08 3.78652e+07 -2.55996e+08 8.78542e+08 -5.63524e+08 1.3084e+09)
(7.23214e+08 6.84674e+06 -1.85419e+08 7.53426e+08 -3.47157e+08 8.86808e+08)
(7.74772e+08 -4.3987e+07 1.06207e+08 7.86077e+08 -2.95635e+08 9.31024e+08)
(9.70524e+08 -7.99673e+07 3.33038e+08 1.04661e+09 -5.74781e+08 1.53374e+09)
(1.22739e+09 -3.23957e+07 2.14051e+08 1.3658e+09 -9.23899e+08 2.28851e+09)
(1.14474e+09 3.64907e+07 -2.32205e+06 1.30708e+09 -9.2682e+08 2.02504e+09)
(1.02687e+09 5.17695e+07 -1.30932e+07 1.12151e+09 -7.34592e+08 1.6252e+09)
(8.64797e+08 3.68377e+07 1.28309e+08 9.19833e+08 -4.95957e+08 1.23354e+09)
(6.14096e+08 1.77912e+07 2.73654e+08 6.99791e+08 -3.76513e+08 7.926e+08)
(2.58122e+08 1.16598e+07 2.11414e+08 4.02575e+08 -3.37701e+08 2.48324e+08)
(-4.091e+07 5.87973e+06 -1.49898e+08 2.13485e+08 -3.32546e+08 -1.66616e+07)
(6.6815e+08 -5.78064e+06 -4.69641e+08 1.25765e+09 -5.95524e+08 2.94077e+09)
(6.33357e+08 -4.9605e+07 4.56814e+08 1.31981e+09 -8.88734e+08 2.96074e+09)
(9.91573e+08 9.37557e+06 1.8341e+07 1.42133e+09 -6.78343e+08 2.25575e+09)
(1.07969e+09 7.96845e+07 -4.61191e+08 1.32849e+09 -6.15504e+08 2.02987e+09)
(9.4739e+08 8.81892e+07 -5.60656e+08 1.02554e+09 -3.57197e+08 1.44499e+09)
(8.44981e+08 3.31457e+07 -3.05761e+08 8.01971e+08 -1.64901e+08 1.04869e+09)
(8.57276e+08 -4.39058e+07 7.09494e+07 8.06568e+08 -2.3333e+08 1.09616e+09)
(1.00901e+09 -8.59349e+07 3.03439e+08 1.04852e+09 -5.56683e+08 1.62164e+09)
(1.15884e+09 -3.47284e+07 2.26485e+08 1.33557e+09 -9.09148e+08 2.09879e+09)
(1.07768e+09 4.80339e+07 -2.25757e+06 1.26404e+09 -9.15922e+08 1.94745e+09)
(9.54368e+08 6.84654e+07 -1.42688e+08 1.04096e+09 -6.71811e+08 1.61563e+09)
(8.06088e+08 4.17e+07 -1.18392e+08 8.4748e+08 -4.28461e+08 1.15859e+09)
(7.59832e+08 -1.02902e+06 4.40989e+07 7.73201e+08 -3.26613e+08 1.03062e+09)
(8.10188e+08 -2.65746e+07 1.68459e+08 8.53604e+08 -4.18157e+08 1.21846e+09)
(8.99283e+08 -1.94201e+07 1.48418e+08 9.82856e+08 -5.39536e+08 1.47179e+09)
(9.15775e+08 -1.18967e+07 1.03682e+08 1.00853e+09 -5.46235e+08 1.48448e+09)
(9.55992e+08 -2.29697e+07 1.18928e+08 1.06261e+09 -6.03788e+08 1.57294e+09)
(1.01809e+09 -9.94191e+06 5.62239e+07 1.16197e+09 -7.34318e+08 1.77384e+09)
(9.94008e+08 2.86061e+07 -1.04226e+08 1.13771e+09 -7.15762e+08 1.75635e+09)
(9.26906e+08 4.61618e+07 -2.3351e+08 9.85364e+08 -5.06568e+08 1.55837e+09)
(8.23154e+08 1.81606e+07 -1.81948e+08 8.35149e+08 -2.83022e+08 1.1509e+09)
(8.43293e+08 -4.42069e+07 6.57861e+07 8.38886e+08 -2.39785e+08 1.12655e+09)
(1.0151e+09 -8.70352e+07 2.61347e+08 1.09939e+09 -4.83778e+08 1.60661e+09)
(1.22775e+09 -3.70674e+07 1.92766e+08 1.41475e+09 -7.90328e+08 2.18316e+09)
(1.20317e+09 3.629e+07 3.60014e+07 1.38318e+09 -7.92444e+08 2.10008e+09)
(1.11301e+09 5.56721e+07 2.75694e+07 1.20913e+09 -6.34579e+08 1.81459e+09)
(9.56325e+08 4.18539e+07 1.5369e+08 9.95301e+08 -4.19722e+08 1.45987e+09)
(7.02133e+08 1.99295e+07 2.81456e+08 7.60879e+08 -3.08659e+08 1.01169e+09)
(3.41548e+08 1.19272e+07 2.18869e+08 4.61408e+08 -2.72827e+08 4.33136e+08)
(2.56111e+07 7.3215e+06 -1.02779e+08 2.69346e+08 -2.66644e+08 1.16586e+08)
(6.26755e+08 -2.59978e+06 -4.36416e+08 1.26637e+09 -5.71968e+08 2.70452e+09)
(5.71959e+08 -5.73762e+07 3.5583e+08 1.25125e+09 -8.18729e+08 2.4856e+09)
(9.52115e+08 2.86592e+06 -1.69481e+07 1.366e+09 -4.97776e+08 2.01751e+09)
(1.08395e+09 7.17411e+07 -3.8924e+08 1.33085e+09 -4.75126e+08 1.97333e+09)
(9.96073e+08 8.62654e+07 -4.75984e+08 1.06846e+09 -2.75292e+08 1.57572e+09)
(9.10461e+08 3.14963e+07 -2.69559e+08 8.59112e+08 -1.38623e+08 1.26007e+09)
(9.12837e+08 -4.40177e+07 4.37481e+07 8.64028e+08 -2.09953e+08 1.26682e+09)
(1.02617e+09 -8.45174e+07 2.43731e+08 1.08663e+09 -4.92433e+08 1.63297e+09)
(1.14097e+09 -3.90873e+07 2.05027e+08 1.33889e+09 -7.81049e+08 1.98529e+09)
(1.10421e+09 3.70361e+07 3.16332e+07 1.29848e+09 -7.98021e+08 1.95726e+09)
(1.00627e+09 6.46478e+07 -9.44788e+07 1.10223e+09 -6.0592e+08 1.72084e+09)
(8.8064e+08 4.39624e+07 -8.54689e+07 9.08227e+08 -3.76802e+08 1.36055e+09)
(8.22354e+08 142994 4.13001e+07 8.24307e+08 -2.92589e+08 1.20384e+09)
(8.59843e+08 -2.74672e+07 1.45338e+08 9.0552e+08 -3.64178e+08 1.32877e+09)
(9.36245e+08 -2.12544e+07 1.33535e+08 1.02875e+09 -4.68464e+08 1.53477e+09)
(9.6358e+08 -1.3179e+07 9.65136e+07 1.05238e+09 -4.80561e+08 1.5912e+09)
(1.00039e+09 -2.38774e+07 1.00146e+08 1.10437e+09 -5.2964e+08 1.66955e+09)
(1.0479e+09 -1.21472e+07 4.51812e+07 1.20264e+09 -6.32842e+08 1.80797e+09)
(1.0374e+09 2.4198e+07 -9.08173e+07 1.18874e+09 -6.1659e+08 1.82103e+09)
(9.80453e+08 4.70843e+07 -2.05504e+08 1.04568e+09 -4.5496e+08 1.66994e+09)
(8.93091e+08 2.43485e+07 -1.70478e+08 8.92633e+08 -2.40125e+08 1.34996e+09)
(8.92187e+08 -3.86531e+07 2.81689e+07 8.818e+08 -2.02674e+08 1.28008e+09)
(1.0301e+09 -8.05303e+07 1.91014e+08 1.11858e+09 -3.98993e+08 1.62537e+09)
(1.19704e+09 -3.73682e+07 1.66919e+08 1.40209e+09 -6.46375e+08 2.04152e+09)
(1.21441e+09 2.9575e+07 6.68914e+07 1.40151e+09 -6.59861e+08 2.07873e+09)
(1.15059e+09 5.15459e+07 6.95357e+07 1.254e+09 -5.41942e+08 1.88911e+09)
(1.01158e+09 4.203e+07 1.83352e+08 1.04192e+09 -3.64716e+08 1.60183e+09)
(7.58327e+08 2.29215e+07 2.93806e+08 8.01144e+08 -2.67132e+08 1.15424e+09)
(4.01677e+08 1.57325e+07 2.32742e+08 5.02135e+08 -2.24601e+08 5.61664e+08)
(7.00071e+07 1.45793e+07 -4.98031e+07 3.05325e+08 -2.13418e+08 1.95368e+08)
(5.80362e+08 4.65726e+06 -3.98371e+08 1.26282e+09 -4.99873e+08 2.44869e+09)
(4.87525e+08 -5.48027e+07 2.4443e+08 1.13992e+09 -7.0482e+08 1.92138e+09)
(9.00303e+08 -1.13042e+06 -6.49917e+07 1.27014e+09 -3.29496e+08 1.77377e+09)
(1.06158e+09 5.83222e+07 -3.28768e+08 1.29182e+09 -3.40291e+08 1.86795e+09)
(1.02462e+09 7.5765e+07 -3.96105e+08 1.08898e+09 -2.1023e+08 1.66148e+09)
(9.52357e+08 2.84115e+07 -2.34912e+08 9.10305e+08 -1.26458e+08 1.40313e+09)
(9.46791e+08 -3.83974e+07 2.00416e+07 9.16063e+08 -1.90636e+08 1.37569e+09)
(1.02584e+09 -7.54418e+07 1.88568e+08 1.10666e+09 -4.20007e+08 1.61294e+09)
(1.10477e+09 -4.00405e+07 1.78074e+08 1.31e+09 -6.51708e+08 1.85307e+09)
(1.09205e+09 2.48205e+07 5.41763e+07 1.29423e+09 -6.79032e+08 1.88243e+09)
(1.01756e+09 5.4504e+07 -5.1183e+07 1.13012e+09 -5.35226e+08 1.72509e+09)
(9.21175e+08 4.0534e+07 -5.42617e+07 9.47356e+08 -3.45005e+08 1.4744e+09)
(8.58079e+08 2.6149e+06 4.09766e+07 8.63713e+08 -2.67694e+08 1.30657e+09)
(8.84774e+08 -2.4007e+07 1.23117e+08 9.36719e+08 -3.13442e+08 1.38562e+09)
(9.41822e+08 -2.13076e+07 1.15901e+08 1.04652e+09 -3.95796e+08 1.52876e+09)
(9.7134e+08 -1.45419e+07 8.62011e+07 1.07282e+09 -4.18399e+08 1.59528e+09)
(1.00373e+09 -2.19889e+07 8.16419e+07 1.12024e+09 -4.58951e+08 1.66336e+09)
(1.0406e+09 -1.20738e+07 3.38176e+07 1.20491e+09 -5.30462e+08 1.76476e+09)
(1.03937e+09 1.89537e+07 -7.94766e+07 1.19499e+09 -5.18457e+08 1.79849e+09)
(9.9183e+08 4.2744e+07 -1.77471e+08 1.07126e+09 -4.0025e+08 1.67976e+09)
(9.30517e+08 2.64788e+07 -1.55626e+08 9.30113e+08 -2.17062e+08 1.46525e+09)
(9.1761e+08 -2.92403e+07 -3.07503e+06 9.155e+08 -1.73835e+08 1.36932e+09)
(1.02172e+09 -6.65531e+07 1.30598e+08 1.11703e+09 -3.1715e+08 1.59646e+09)
(1.15123e+09 -3.43574e+07 1.40609e+08 1.35776e+09 -5.04989e+08 1.89213e+09)
(1.19282e+09 2.10773e+07 8.89906e+07 1.38369e+09 -5.29095e+08 1.99116e+09)
(1.15159e+09 4.27159e+07 1.06698e+08 1.26707e+09 -4.46978e+08 1.8757e+09)
(1.02992e+09 3.84625e+07 2.13682e+08 1.06756e+09 -3.21841e+08 1.6452e+09)
(7.85438e+08 2.51642e+07 3.11716e+08 8.27262e+08 -2.33585e+08 1.21832e+09)
(4.4024e+08 2.05007e+07 2.54339e+08 5.30019e+08 -1.87866e+08 6.3371e+08)
(9.996e+07 2.37715e+07 7.31712e+06 3.2823e+08 -1.68909e+08 2.3169e+08)
(5.46925e+08 1.69767e+07 -3.5011e+08 1.25727e+09 -3.83241e+08 2.24615e+09)
(3.96223e+08 -4.74691e+07 1.38525e+08 1.00528e+09 -5.54052e+08 1.36356e+09)
(8.4964e+08 -2.32885e+06 -1.13586e+08 1.16139e+09 -1.86607e+08 1.56078e+09)
(1.02848e+09 4.39689e+07 -2.8122e+08 1.23216e+09 -2.19097e+08 1.75257e+09)
(1.03249e+09 6.19688e+07 -3.2699e+08 1.09771e+09 -1.63457e+08 1.68896e+09)
(9.72231e+08 2.57521e+07 -2.02557e+08 9.57873e+08 -1.14094e+08 1.47376e+09)
(9.64032e+08 -3.0482e+07 2.25848e+06 9.63798e+08 -1.64633e+08 1.43263e+09)
(1.01611e+09 -6.35713e+07 1.41656e+08 1.11624e+09 -3.41274e+08 1.57863e+09)
(1.06253e+09 -3.82222e+07 1.49642e+08 1.26937e+09 -5.24571e+08 1.72328e+09)
(1.05932e+09 1.35939e+07 6.56591e+07 1.26947e+09 -5.5794e+08 1.76701e+09)
(1.00247e+09 4.0561e+07 -1.78846e+07 1.13664e+09 -4.56823e+08 1.66414e+09)
(9.30186e+08 3.33259e+07 -2.78873e+07 9.72273e+08 -3.1664e+08 1.49755e+09)
(8.68678e+08 5.02725e+06 4.29804e+07 8.91289e+08 -2.41848e+08 1.33888e+09)
(8.87835e+08 -1.79441e+07 1.04811e+08 9.5264e+08 -2.64789e+08 1.3908e+09)
(9.27748e+08 -1.85424e+07 9.82421e+07 1.04803e+09 -3.19742e+08 1.48021e+09)
(9.51191e+08 -1.47527e+07 7.37865e+07 1.07739e+09 -3.44761e+08 1.52756e+09)
(9.78898e+08 -1.95379e+07 6.48343e+07 1.11873e+09 -3.77656e+08 1.58582e+09)
(1.0111e+09 -1.20715e+07 2.32195e+07 1.1851e+09 -4.28056e+08 1.67618e+09)
(1.0129e+09 1.35367e+07 -7.09478e+07 1.17324e+09 -4.26756e+08 1.71577e+09)
(9.73878e+08 3.58068e+07 -1.52882e+08 1.07395e+09 -3.40131e+08 1.61772e+09)
(9.3654e+08 2.60084e+07 -1.40016e+08 9.53888e+08 -1.97843e+08 1.4898e+09)
(9.21822e+08 -1.79484e+07 -2.52471e+07 9.39924e+08 -1.42717e+08 1.39609e+09)
(9.99993e+08 -4.97602e+07 8.49364e+07 1.10512e+09 -2.3523e+08 1.5405e+09)
(1.10129e+09 -2.90704e+07 1.16914e+08 1.30315e+09 -3.69925e+08 1.75136e+09)
(1.15436e+09 1.31371e+07 1.04216e+08 1.34769e+09 -4.00739e+08 1.8735e+09)
(1.13169e+09 3.21035e+07 1.36626e+08 1.25854e+09 -3.47159e+08 1.81485e+09)
(1.02304e+09 3.22727e+07 2.4167e+08 1.07917e+09 -2.70381e+08 1.61837e+09)
(7.92901e+08 2.53342e+07 3.32831e+08 8.44935e+08 -1.99206e+08 1.22645e+09)
(4.59987e+08 2.3628e+07 2.80681e+08 5.50042e+08 -1.56893e+08 6.55685e+08)
(1.22031e+08 2.83393e+07 6.32335e+07 3.43806e+08 -1.28693e+08 2.40623e+08)
(5.39408e+08 2.64262e+07 -2.98145e+08 1.25313e+09 -2.42594e+08 2.15683e+09)
(3.144e+08 -3.88858e+07 5.09416e+07 8.68377e+08 -3.83893e+08 8.84935e+08)
(8.0665e+08 -1.08083e+06 -1.56579e+08 1.05692e+09 -7.20646e+07 1.39041e+09)
(9.95155e+08 3.24157e+07 -2.44423e+08 1.17105e+09 -1.17808e+08 1.64776e+09)
(1.02289e+09 4.92285e+07 -2.68973e+08 1.10601e+09 -1.17324e+08 1.6573e+09)
(9.76681e+08 2.36116e+07 -1.71623e+08 1.00321e+09 -8.56677e+07 1.48898e+09)
(9.72151e+08 -2.28439e+07 -9.47462e+06 1.00847e+09 -1.23853e+08 1.45868e+09)
(1.00462e+09 -5.16517e+07 1.03375e+08 1.12309e+09 -2.56728e+08 1.54475e+09)
(1.02394e+09 -3.47199e+07 1.22543e+08 1.23151e+09 -3.99361e+08 1.61216e+09)
(1.02253e+09 4.20908e+06 6.85408e+07 1.23947e+09 -4.32423e+08 1.65111e+09)
(9.75299e+08 2.57058e+07 3.71327e+06 1.13148e+09 -3.65829e+08 1.57542e+09)
(9.15526e+08 2.41764e+07 -8.29243e+06 9.88096e+08 -2.74874e+08 1.44813e+09)
(8.60427e+08 6.3056e+06 4.63177e+07 9.0907e+08 -2.05973e+08 1.31551e+09)
(8.73497e+08 -1.09946e+07 9.16978e+07 9.59847e+08 -2.10657e+08 1.34952e+09)
(9.04263e+08 -1.3539e+07 8.35147e+07 1.04245e+09 -2.36329e+08 1.4122e+09)
(9.19376e+08 -1.34818e+07 6.10873e+07 1.07222e+09 -2.54029e+08 1.43406e+09)
(9.4244e+08 -1.76882e+07 4.95281e+07 1.10662e+09 -2.80628e+08 1.48275e+09)
(9.71897e+08 -1.28708e+07 1.2481e+07 1.15631e+09 -3.22165e+08 1.56867e+09)
(9.70418e+08 8.64351e+06 -6.54761e+07 1.14179e+09 -3.3537e+08 1.59465e+09)
(9.38948e+08 2.85558e+07 -1.32939e+08 1.06333e+09 -2.67963e+08 1.51378e+09)
(9.17853e+08 2.40302e+07 -1.2489e+08 9.68496e+08 -1.65205e+08 1.43823e+09)
(9.11466e+08 -7.14165e+06 -3.74002e+07 9.56466e+08 -1.01333e+08 1.37739e+09)
(9.7452e+08 -3.32055e+07 5.33168e+07 1.09048e+09 -1.49847e+08 1.47903e+09)
(1.05573e+09 -2.25503e+07 9.76538e+07 1.25242e+09 -2.40424e+08 1.63229e+09)