/*--------------------------------*- C++ -*----------------------------------*\
| =========                 |                                                 |
| \\      /  F ield         | OpenFOAM: The Open Source CFD Toolbox           |
|  \\    /   O peration     | Version:  2106                                  |
|   \\  /    A nd           | Website:  www.openfoam.com                      |
|    \\/     M anipulation  |                                                 |
\*---------------------------------------------------------------------------*/
FoamFile
{
    version     2.0;
    format      ascii;
    arch        "LSB;label=32;scalar=64";
    class       volVectorField;
    location    "387";
    object      D;
}
// * * * * * * * * * * * * * * * * * * * * * * * * * * * * * * * * * * * * * //

dimensions      [0 1 0 0 0 0 0];

internalField   nonuniform List<vector> 
9000
(
(2.74228e-05 0.000258073 0.000197631)
(-2.76752e-05 0.000353813 0.000324804)
(-7.28498e-05 0.000294513 0.000219948)
(-6.00291e-05 0.000165521 0.000100851)
(-1.98909e-05 7.99864e-05 2.39245e-05)
(2.36586e-05 7.12984e-05 1.92483e-05)
(5.74991e-05 0.000147521 9.60071e-05)
(2.84697e-05 0.000242609 0.000222554)
(-2.00338e-05 0.000230504 0.00016364)
(-2.27958e-05 0.000186942 7.39912e-05)
(-6.51337e-06 0.000100098 2.15187e-05)
(1.34572e-05 6.01409e-05 7.94433e-06)
(3.07976e-05 0.000102974 4.47748e-05)
(9.25098e-06 0.000157246 0.000101012)
(-6.29729e-06 0.000142848 7.30711e-05)
(1.83576e-05 0.000150715 8.00405e-05)
(1.18943e-05 0.000197274 0.000135713)
(-1.53256e-05 0.00019786 0.000117414)
(-2.02904e-05 0.000167947 5.93059e-05)
(-5.67378e-06 9.03569e-05 1.64634e-05)
(2.43015e-05 6.85605e-05 1.78289e-05)
(5.5023e-05 0.000154137 0.000105722)
(1.82933e-05 0.000263447 0.000245966)
(-3.194e-05 0.000248863 0.000184734)
(-3.39473e-05 0.000209107 0.000130037)
(-2.30808e-05 0.000161906 8.58422e-05)
(7.73276e-06 0.000129686 6.31742e-05)
(4.464e-05 0.000152049 8.87863e-05)
(6.07832e-05 0.000159122 0.000103544)
(9.69884e-05 3.51635e-05 -2.97879e-05)
(-4.9246e-06 0.000201711 6.1999e-05)
(-2.97745e-05 0.000242102 0.000129625)
(-5.08195e-05 0.000219869 8.15124e-05)
(-3.90942e-05 0.000128324 2.5385e-05)
(-1.14334e-05 6.64685e-05 -9.24008e-06)
(1.58788e-05 5.95119e-05 -1.22233e-05)
(3.74804e-05 0.000110806 2.42176e-05)
(2.05395e-05 0.000162792 8.27134e-05)
(-8.05504e-06 0.000173807 5.49071e-05)
(-9.4281e-06 0.000160981 1.3638e-05)
(4.55397e-07 9.02447e-05 -1.25625e-05)
(1.16056e-05 5.27841e-05 -1.80789e-05)
(2.21679e-05 8.46182e-05 1.3895e-06)
(5.70569e-06 0.000118316 3.34562e-05)
(-5.6477e-06 0.000115643 1.26827e-05)
(1.27145e-05 0.000121017 1.57196e-05)
(7.93638e-06 0.000147038 4.88991e-05)
(-9.66926e-06 0.000157538 3.41923e-05)
(-1.10684e-05 0.000146246 7.91152e-06)
(-1.87157e-06 8.14008e-05 -1.38184e-05)
(1.47268e-05 5.72133e-05 -1.30284e-05)
(3.23081e-05 0.00011444 2.86058e-05)
(9.32066e-06 0.00017634 9.27252e-05)
(-2.18288e-05 0.000185401 6.42823e-05)
(-2.35016e-05 0.000164783 3.7783e-05)
(-1.58172e-05 0.000131442 1.66892e-05)
(7.85809e-06 0.000105327 6.34892e-06)
(4.0994e-05 0.000118044 2.10274e-05)
(6.92276e-05 0.000119968 2.90177e-05)
(0.000122234 3.61996e-05 -6.26465e-05)
(-3.4854e-05 0.000176023 9.82001e-06)
(-3.13407e-05 0.000194199 4.8463e-05)
(-3.13462e-05 0.000184286 3.38919e-05)
(-2.18226e-05 0.000114639 2.04785e-06)
(-5.02684e-06 6.37866e-05 -1.64449e-05)
(8.90758e-06 5.88387e-05 -1.92405e-05)
(1.96037e-05 9.60059e-05 -6.13196e-07)
(1.37914e-05 0.000129814 2.29006e-05)
(3.36928e-06 0.000148215 1.77345e-05)
(1.13292e-06 0.000139819 6.86618e-06)
(3.97416e-06 8.54024e-05 -1.43216e-05)
(9.21506e-06 5.40242e-05 -2.25992e-05)
(1.4675e-05 7.68954e-05 -8.20969e-06)
(2.94709e-06 9.80217e-05 1.2204e-05)
(-4.65221e-06 0.000102663 -2.17453e-06)
(7.39726e-06 0.000106962 -9.5958e-07)
(4.81527e-06 0.000121211 1.98767e-05)
(-4.27739e-06 0.000135751 1.28592e-05)
(-4.62486e-06 0.000126485 4.60717e-06)
(-1.27028e-06 7.70661e-05 -1.48678e-05)
(5.22583e-06 5.71511e-05 -2.04437e-05)
(1.19363e-05 9.96059e-05 5.18767e-07)
(1.87241e-06 0.000141025 2.68573e-05)
(-1.16374e-05 0.000158198 2.09775e-05)
(-1.39432e-05 0.000145026 1.14335e-05)
(-9.75275e-06 0.000118777 -2.75738e-07)
(7.53869e-06 9.7892e-05 -8.09985e-06)
(3.69969e-05 0.000103388 1.48877e-06)
(7.48927e-05 0.000100404 6.04527e-06)
(0.000143603 4.10573e-05 -7.76886e-05)
(-5.71891e-05 0.00015808 -1.36199e-05)
(-3.26633e-05 0.000168423 1.02678e-05)
(-1.68158e-05 0.000159366 1.44653e-05)
(-8.88231e-06 0.000105277 -3.73375e-06)
(-4.74304e-07 6.15656e-05 -1.48063e-05)
(3.55717e-06 5.78801e-05 -1.66734e-05)
(5.95526e-06 8.59524e-05 -8.80808e-06)
(8.52577e-06 0.000112957 -5.28015e-06)
(1.08877e-05 0.000129922 3.71829e-06)
(8.39361e-06 0.000116104 6.68473e-06)
(6.6894e-06 7.65135e-05 -9.01771e-06)
(7.04188e-06 5.29831e-05 -1.82728e-05)
(8.08956e-06 6.84169e-05 -8.07994e-06)
(8.87006e-07 8.24161e-05 3.00769e-06)
(-3.31097e-06 9.03846e-05 -4.45336e-06)
(2.69293e-06 9.42947e-05 -4.20212e-06)
(2.18463e-06 0.00010238 6.77418e-06)
(-6.06022e-07 0.000115181 6.82052e-06)
(-3.33188e-07 0.000102927 5.93115e-06)
(-9.26551e-07 6.88445e-05 -9.51684e-06)
(-2.30678e-06 5.64191e-05 -1.7799e-05)
(-3.73969e-06 9.05938e-05 -8.96418e-06)
(-3.83481e-06 0.000123561 -4.13854e-06)
(-3.91152e-06 0.000140581 4.1051e-06)
(-6.52327e-06 0.00012894 4.42951e-06)
(-4.86679e-06 0.000107053 -1.99539e-06)
(7.11608e-06 9.10154e-05 -7.86699e-06)
(3.3178e-05 9.16716e-05 -2.65843e-06)
(7.84604e-05 8.513e-05 -1.62333e-06)
(0.000159496 4.40758e-05 -8.37443e-05)
(-7.09253e-05 0.000139553 -2.72716e-05)
(-3.3484e-05 0.00014723 -8.98755e-06)
(-7.78872e-06 0.000135222 2.83922e-06)
(-9.18414e-08 9.2587e-05 -5.55576e-06)
(2.6257e-06 5.54253e-05 -1.17266e-05)
(-3.44201e-08 5.15273e-05 -1.27015e-05)
(-2.7858e-06 7.38814e-05 -1.24014e-05)
(4.85568e-06 9.88419e-05 -1.90087e-05)
(1.42438e-05 0.000110391 -3.96007e-06)
(1.27689e-05 9.23068e-05 2.11895e-06)
(9.21338e-06 6.24258e-05 -6.22948e-06)
(5.42212e-06 4.5406e-05 -1.33271e-05)
(2.87175e-06 5.59619e-05 -8.04199e-06)
(-4.99352e-07 6.72307e-05 -4.10943e-06)
(-2.03882e-06 7.52165e-05 -5.58586e-06)
(-9.6371e-07 7.89838e-05 -5.82111e-06)
(-3.95284e-08 8.48326e-05 -2.60123e-06)
(1.28561e-06 9.32702e-05 1.19028e-06)
(2.41406e-06 7.91349e-05 1.88608e-06)
(-1.08505e-07 5.55542e-05 -6.69099e-06)
(-7.22689e-06 4.95956e-05 -1.34969e-05)
(-1.38955e-05 7.89523e-05 -1.22547e-05)
(-7.86264e-06 0.000108966 -1.89925e-05)
(3.85002e-07 0.00012184 -4.3643e-06)
(-1.65992e-06 0.000109998 4.00203e-07)
(-1.26357e-06 9.10205e-05 -2.45766e-06)
(6.9723e-06 7.83027e-05 -5.61606e-06)
(3.04901e-05 7.72061e-05 -3.9312e-06)
(8.02446e-05 6.98762e-05 -5.45531e-06)
(0.000168831 4.32246e-05 -8.62945e-05)
(-7.71749e-05 0.000119917 -3.74741e-05)
(-3.36249e-05 0.000125711 -1.87098e-05)
(-3.5244e-06 0.000111171 -6.97085e-06)
(5.10959e-06 7.69031e-05 -8.64489e-06)
(4.55419e-06 4.5159e-05 -1.0637e-05)
(-2.01579e-06 4.0771e-05 -1.16921e-05)
(-7.0394e-06 6.00617e-05 -1.61681e-05)
(2.62756e-06 8.37914e-05 -2.56585e-05)
(1.4637e-05 8.95785e-05 -1.08842e-05)
(1.48995e-05 7.12083e-05 -5.96279e-06)
(1.11287e-05 4.67593e-05 -8.26399e-06)
(4.3764e-06 3.3468e-05 -1.20962e-05)
(-5.95114e-07 4.22025e-05 -1.13201e-05)
(-1.3019e-06 5.25378e-05 -1.12113e-05)
(-1.21e-06 5.83875e-05 -8.87189e-06)
(-3.30776e-06 6.2027e-05 -9.29045e-06)
(-1.69294e-06 6.80162e-05 -1.0979e-05)
(1.94504e-06 7.21378e-05 -6.4553e-06)
(3.92246e-06 5.84912e-05 -6.18003e-06)
(7.36937e-07 4.07092e-05 -8.62705e-06)
(-9.82051e-06 3.80138e-05 -1.22398e-05)
(-1.90393e-05 6.4182e-05 -1.5052e-05)
(-1.04628e-05 9.30205e-05 -2.5892e-05)
(1.53993e-06 0.000101008 -1.11347e-05)
(8.41038e-07 8.93758e-05 -5.5988e-06)
(1.07037e-06 7.29307e-05 -6.19798e-06)
(7.27719e-06 6.18269e-05 -6.84438e-06)
(2.94002e-05 6.11175e-05 -6.77799e-06)
(8.0443e-05 5.48473e-05 -8.59383e-06)
(0.000171801 3.96648e-05 -8.82381e-05)
(-7.79549e-05 0.000101452 -4.58882e-05)
(-3.30082e-05 0.000104111 -2.35824e-05)
(-2.60304e-06 8.93327e-05 -1.58808e-05)
(7.37146e-06 6.12297e-05 -1.35959e-05)
(5.49881e-06 3.2899e-05 -1.27972e-05)
(-2.56519e-06 2.9123e-05 -1.44417e-05)
(-7.91081e-06 4.71086e-05 -2.08091e-05)
(1.50168e-06 6.82683e-05 -2.90205e-05)
(1.34396e-05 7.01247e-05 -1.80657e-05)
(1.55107e-05 5.38893e-05 -1.47289e-05)
(1.20575e-05 3.29953e-05 -1.31935e-05)
(3.81369e-06 2.1515e-05 -1.51823e-05)
(-2.33208e-06 3.05499e-05 -1.65808e-05)
(-1.78687e-06 3.95191e-05 -1.80422e-05)
(-9.01953e-07 4.2235e-05 -1.41589e-05)
(-4.42365e-06 4.56688e-05 -1.45811e-05)
(-2.7266e-06 5.29209e-05 -1.85085e-05)
(1.92979e-06 5.40605e-05 -1.50738e-05)
(4.55946e-06 4.21763e-05 -1.50464e-05)
(1.09022e-06 2.77259e-05 -1.34297e-05)
(-1.08409e-05 2.58032e-05 -1.51525e-05)
(-2.04296e-05 4.91316e-05 -1.91285e-05)
(-1.19536e-05 7.62026e-05 -2.91643e-05)
(5.39554e-07 8.07709e-05 -1.80101e-05)
(1.59965e-06 7.04027e-05 -1.3576e-05)
(2.27836e-06 5.64078e-05 -1.24482e-05)
(7.89536e-06 4.62204e-05 -1.18522e-05)
(2.96075e-05 4.64858e-05 -1.13828e-05)
(7.93675e-05 4.13147e-05 -1.15564e-05)
(0.000169738 3.54425e-05 -8.9933e-05)
(-7.49448e-05 8.60067e-05 -5.18839e-05)
(-3.16999e-05 8.38078e-05 -2.59402e-05)
(-3.56315e-06 7.10714e-05 -2.30235e-05)
(7.3995e-06 4.72928e-05 -1.89415e-05)
(5.65619e-06 2.17224e-05 -1.78406e-05)
(-1.92002e-06 1.93431e-05 -1.94154e-05)
(-6.69188e-06 3.63914e-05 -2.50389e-05)
(1.10973e-06 5.36245e-05 -3.08755e-05)
(1.1657e-05 5.39335e-05 -2.46405e-05)
(1.51237e-05 4.03742e-05 -2.23747e-05)
(1.21061e-05 2.17125e-05 -1.87809e-05)
(3.65572e-06 1.25454e-05 -2.03568e-05)
(-2.79964e-06 2.14406e-05 -2.15232e-05)
(-2.23099e-06 2.88842e-05 -2.38666e-05)
(-1.05277e-06 2.8638e-05 -2.06916e-05)
(-4.53881e-06 3.1764e-05 -2.10394e-05)
(-3.06801e-06 4.03308e-05 -2.47162e-05)
(1.59622e-06 4.02492e-05 -2.26884e-05)
(4.5155e-06 3e-05 -2.26954e-05)
(9.01227e-07 1.71442e-05 -1.89021e-05)
(-1.0904e-05 1.62531e-05 -2.03265e-05)
(-1.9576e-05 3.62969e-05 -2.38636e-05)
(-1.26423e-05 6.01188e-05 -3.09079e-05)
(-1.4951e-06 6.33941e-05 -2.44168e-05)
(1.20843e-06 5.51715e-05 -2.15649e-05)
(2.62821e-06 4.26475e-05 -1.92393e-05)
(8.63521e-06 3.39977e-05 -1.82448e-05)
(3.03846e-05 3.47981e-05 -1.60359e-05)
(7.7458e-05 3.00629e-05 -1.40248e-05)
(0.000164192 3.13498e-05 -9.03503e-05)
(-6.92177e-05 7.35458e-05 -5.43233e-05)
(-2.98417e-05 6.57639e-05 -2.68837e-05)
(-5.35244e-06 5.6146e-05 -2.76144e-05)
(6.03474e-06 3.50288e-05 -2.36877e-05)
(5.37199e-06 1.37473e-05 -2.38195e-05)
(-5.74155e-07 1.23215e-05 -2.45713e-05)
(-4.49334e-06 2.73638e-05 -2.78521e-05)
(1.21119e-06 4.07857e-05 -3.19265e-05)
(9.90481e-06 4.13399e-05 -2.95727e-05)
(1.40182e-05 3.03118e-05 -2.80623e-05)
(1.15677e-05 1.29457e-05 -2.44041e-05)
(3.80177e-06 6.79222e-06 -2.5365e-05)
(-2.53737e-06 1.40253e-05 -2.54129e-05)
(-2.58867e-06 2.06706e-05 -2.82292e-05)
(-1.4307e-06 1.92725e-05 -2.71321e-05)
(-4.02573e-06 2.20204e-05 -2.7404e-05)
(-2.83437e-06 3.03733e-05 -2.92569e-05)
(1.14845e-06 2.98118e-05 -2.79509e-05)
(3.82754e-06 2.13501e-05 -2.83145e-05)
(3.55268e-07 9.0085e-06 -2.44619e-05)
(-1.03202e-05 9.96329e-06 -2.54702e-05)
(-1.77219e-05 2.65049e-05 -2.79979e-05)
(-1.27949e-05 4.59828e-05 -3.19403e-05)
(-3.68626e-06 4.94589e-05 -2.93094e-05)
(7.72399e-08 4.37156e-05 -2.76628e-05)
(2.37239e-06 3.20284e-05 -2.55443e-05)
(9.40771e-06 2.53648e-05 -2.40023e-05)
(3.10911e-05 2.54423e-05 -1.94908e-05)
(7.51814e-05 2.10831e-05 -1.57324e-05)
(0.000156898 2.66254e-05 -8.88355e-05)
(-6.15547e-05 6.25047e-05 -5.31703e-05)
(-2.75628e-05 5.03048e-05 -2.70474e-05)
(-7.37687e-06 4.34529e-05 -2.98635e-05)
(4.01278e-06 2.4611e-05 -2.8107e-05)
(4.97679e-06 8.9337e-06 -2.88931e-05)
(8.81606e-07 7.60332e-06 -2.86001e-05)
(-2.09261e-06 1.9251e-05 -2.95694e-05)
(1.71774e-06 3.00746e-05 -3.24653e-05)
(8.49741e-06 3.16589e-05 -3.24842e-05)
(1.25134e-05 2.29699e-05 -3.16834e-05)
(1.07157e-05 7.62486e-06 -2.96394e-05)
(4.04422e-06 3.50278e-06 -2.92108e-05)
(-1.94828e-06 8.15248e-06 -2.85296e-05)
(-2.62685e-06 1.45855e-05 -3.1094e-05)
(-1.70852e-06 1.40835e-05 -3.16796e-05)
(-3.32872e-06 1.64436e-05 -3.19052e-05)
(-2.46353e-06 2.2778e-05 -3.21658e-05)
(6.92737e-07 2.15065e-05 -3.14459e-05)
(2.79443e-06 1.54433e-05 -3.19522e-05)
(-3.50605e-07 4.2957e-06 -2.96941e-05)
(-9.38813e-06 6.25453e-06 -2.93809e-05)
(-1.56701e-05 1.93434e-05 -3.0788e-05)
(-1.26295e-05 3.4294e-05 -3.25196e-05)
(-5.54884e-06 3.83771e-05 -3.22686e-05)
(-1.36318e-06 3.46936e-05 -3.11628e-05)
(1.77116e-06 2.50142e-05 -3.0363e-05)
(9.85254e-06 1.95131e-05 -2.78837e-05)
(3.13731e-05 1.75782e-05 -2.19458e-05)
(7.29255e-05 1.39384e-05 -1.68365e-05)
(0.000150251 2.02434e-05 -8.6215e-05)
(-5.28602e-05 5.15668e-05 -4.9876e-05)
(-2.49972e-05 3.74498e-05 -2.69483e-05)
(-9.23387e-06 3.22868e-05 -3.08789e-05)
(1.93422e-06 1.7201e-05 -3.21439e-05)
(4.55777e-06 6.29375e-06 -3.21452e-05)
(2.02442e-06 4.31145e-06 -3.11331e-05)
(8.28441e-08 1.21561e-05 -3.08646e-05)
(2.54585e-06 2.14196e-05 -3.26609e-05)
(7.55579e-06 2.39684e-05 -3.36784e-05)
(1.105e-05 1.75608e-05 -3.35157e-05)
(9.76943e-06 5.86217e-06 -3.33169e-05)
(4.11585e-06 2.04727e-06 -3.16877e-05)
(-1.29293e-06 4.24914e-06 -3.11325e-05)
(-2.27187e-06 1.02427e-05 -3.26558e-05)
(-1.71892e-06 1.11676e-05 -3.36081e-05)
(-2.71181e-06 1.31772e-05 -3.38136e-05)
(-2.22671e-06 1.71773e-05 -3.36933e-05)
(2.90306e-07 1.56868e-05 -3.39911e-05)
(1.80608e-06 1.16735e-05 -3.39104e-05)
(-1.09292e-06 3.1651e-06 -3.34023e-05)
(-8.50827e-06 4.32017e-06 -3.17745e-05)
(-1.38607e-05 1.40217e-05 -3.22201e-05)
(-1.23166e-05 2.50014e-05 -3.27337e-05)
(-6.96838e-06 2.93263e-05 -3.36152e-05)
(-2.6785e-06 2.67541e-05 -3.27454e-05)
(1.0247e-06 2.05116e-05 -3.26653e-05)
(9.69224e-06 1.50018e-05 -2.98878e-05)
(3.11076e-05 1.1302e-05 -2.3911e-05)
(7.09185e-05 8.18971e-06 -1.76449e-05)
(0.000145305 1.22941e-05 -8.42889e-05)
(-4.43869e-05 4.09491e-05 -4.6312e-05)
(-2.23718e-05 2.71966e-05 -2.69391e-05)
(-1.068e-05 2.31096e-05 -3.16663e-05)
(1.70438e-07 1.29988e-05 -3.46789e-05)
(3.97643e-06 4.59397e-06 -3.34016e-05)
(2.67203e-06 1.6635e-06 -3.24093e-05)
(1.86089e-06 6.46365e-06 -3.20476e-05)
(3.56048e-06 1.45424e-05 -3.26269e-05)
(7.07569e-06 1.75492e-05 -3.37824e-05)
(9.97041e-06 1.33432e-05 -3.40025e-05)
(8.90965e-06 6.1295e-06 -3.46115e-05)
(3.92997e-06 1.82106e-06 -3.27999e-05)
(-7.29649e-07 2.58729e-06 -3.2874e-05)
(-1.71229e-06 7.17578e-06 -3.31749e-05)
(-1.5094e-06 8.74576e-06 -3.35917e-05)
(-2.20362e-06 1.04665e-05 -3.37894e-05)
(-2.03694e-06 1.30993e-05 -3.41044e-05)
(-1.83397e-08 1.25789e-05 -3.52389e-05)
(1.00958e-06 9.40657e-06 -3.44154e-05)
(-1.81807e-06 4.11711e-06 -3.47035e-05)
(-7.98496e-06 3.42617e-06 -3.27711e-05)
(-1.24927e-05 9.87958e-06 -3.26893e-05)
(-1.1974e-05 1.77316e-05 -3.26459e-05)
(-8.02193e-06 2.17585e-05 -3.3965e-05)
(-3.6888e-06 1.98191e-05 -3.36174e-05)
(2.91488e-07 1.6319e-05 -3.29311e-05)
(9.05952e-06 1.12782e-05 -3.0799e-05)
(3.03923e-05 6.90919e-06 -2.53784e-05)
(6.91424e-05 3.61881e-06 -1.83855e-05)
(0.000142524 4.28055e-06 -8.45398e-05)
(-3.66067e-05 3.15084e-05 -4.32678e-05)
(-1.99647e-05 1.94265e-05 -2.70007e-05)
(-1.15791e-05 1.62739e-05 -3.20472e-05)
(-1.32865e-06 1.02975e-05 -3.48617e-05)
(3.1127e-06 2.48028e-06 -3.31225e-05)
(2.88641e-06 -8.85163e-07 -3.29082e-05)
(3.23299e-06 2.2351e-06 -3.30032e-05)
(4.59403e-06 9.03329e-06 -3.2442e-05)
(6.96931e-06 1.19602e-05 -3.34169e-05)
(9.40881e-06 9.66926e-06 -3.36694e-05)
(8.26776e-06 6.39657e-06 -3.37154e-05)
(3.60943e-06 2.01201e-06 -3.27085e-05)
(-3.30425e-07 2.19047e-06 -3.31506e-05)
(-1.23536e-06 4.81935e-06 -3.29479e-05)
(-1.21782e-06 6.08801e-06 -3.27881e-05)
(-1.72978e-06 7.58682e-06 -3.29749e-05)
(-1.71709e-06 9.91574e-06 -3.36784e-05)
(-2.18158e-07 1.09139e-05 -3.46864e-05)
(3.81792e-07 7.77605e-06 -3.37371e-05)
(-2.50542e-06 5.08388e-06 -3.37114e-05)
(-7.91669e-06 2.84186e-06 -3.26716e-05)
(-1.16052e-05 6.4884e-06 -3.26584e-05)
(-1.16658e-05 1.19656e-05 -3.23639e-05)
(-8.73275e-06 1.53318e-05 -3.38216e-05)
(-4.47712e-06 1.43017e-05 -3.40632e-05)
(-3.32359e-07 1.18327e-05 -3.27807e-05)
(8.25112e-06 8.1875e-06 -3.09278e-05)
(2.93767e-05 3.97341e-06 -2.59331e-05)
(6.76054e-05 1.30624e-08 -1.901e-05)
(0.000141669 -1.88914e-06 -8.68432e-05)
(-3.02117e-05 2.3299e-05 -4.08474e-05)
(-1.80944e-05 1.36969e-05 -2.70057e-05)
(-1.21339e-05 1.08565e-05 -3.18055e-05)
(-2.73047e-06 6.71897e-06 -3.3175e-05)
(2.02104e-06 -9.22868e-07 -3.23662e-05)
(2.89765e-06 -3.63495e-06 -3.31038e-05)
(4.27161e-06 -1.14475e-06 -3.35548e-05)
(5.51022e-06 4.40685e-06 -3.22228e-05)
(7.12551e-06 6.9506e-06 -3.30148e-05)
(9.28847e-06 6.09325e-06 -3.30578e-05)
(7.90118e-06 5.12574e-06 -3.17974e-05)
(3.29228e-06 1.78549e-06 -3.19068e-05)
(-9.59651e-08 1.39991e-06 -3.24375e-05)
(-9.37929e-07 2.57577e-06 -3.23645e-05)
(-9.44052e-07 3.2071e-06 -3.2024e-05)
(-1.24384e-06 4.54812e-06 -3.21907e-05)
(-1.22624e-06 6.93059e-06 -3.27995e-05)
(-3.30198e-07 8.76226e-06 -3.27318e-05)
(-1.52987e-07 5.86844e-06 -3.24309e-05)
(-3.13087e-06 4.37575e-06 -3.1565e-05)
(-8.18337e-06 1.88901e-06 -3.1959e-05)
(-1.11434e-05 3.57773e-06 -3.24773e-05)
(-1.14249e-05 7.19987e-06 -3.20554e-05)
(-9.11614e-06 9.71296e-06 -3.35258e-05)
(-5.06184e-06 9.72905e-06 -3.40451e-05)
(-8.61296e-07 7.99197e-06 -3.29512e-05)
(7.476e-06 5.13444e-06 -3.07027e-05)
(2.81999e-05 1.04747e-06 -2.55905e-05)
(6.63912e-05 -3.09612e-06 -1.94043e-05)
(0.000141465 -5.63908e-06 -8.96959e-05)
(-2.58699e-05 1.59381e-05 -3.91238e-05)
(-1.70861e-05 9.37447e-06 -2.69494e-05)
(-1.27617e-05 5.81752e-06 -3.13855e-05)
(-4.08958e-06 8.29165e-07 -3.14462e-05)
(9.53915e-07 -5.25935e-06 -3.21285e-05)
(2.89391e-06 -6.7183e-06 -3.33057e-05)
(5.04772e-06 -4.17204e-06 -3.39879e-05)
(6.28179e-06 2.27064e-07 -3.21136e-05)
(7.44023e-06 2.29958e-06 -3.27886e-05)
(9.40612e-06 2.42317e-06 -3.26162e-05)
(7.79654e-06 2.26541e-06 -3.04337e-05)
(3.09404e-06 7.30278e-07 -3.11504e-05)
(5.7086e-09 -2.30376e-08 -3.19116e-05)
(-7.52091e-07 2.70049e-08 -3.18978e-05)
(-7.02633e-07 2.72632e-07 -3.16248e-05)
(-7.72844e-07 1.53008e-06 -3.17597e-05)
(-7.23581e-07 3.66242e-06 -3.20084e-05)
(-3.94889e-07 4.94816e-06 -3.09047e-05)
(-6.29853e-07 3.19743e-06 -3.13466e-05)
(-3.65867e-06 1.77371e-06 -2.99463e-05)
(-8.52586e-06 1.85179e-07 -3.12874e-05)
(-1.09886e-05 9.31864e-07 -3.23501e-05)
(-1.12765e-05 3.03376e-06 -3.18572e-05)
(-9.24865e-06 4.56659e-06 -3.33166e-05)
(-5.35583e-06 5.38368e-06 -3.38371e-05)
(-1.33196e-06 5.02966e-06 -3.30761e-05)
(6.67385e-06 2.21798e-06 -3.07047e-05)
(2.70911e-05 -2.65574e-06 -2.54451e-05)
(6.55192e-05 -6.21548e-06 -1.97583e-05)
(0.000141957 -7.65613e-06 -9.17621e-05)
(-2.42062e-05 9.11884e-06 -3.82095e-05)
(-1.71484e-05 5.86762e-06 -2.69172e-05)
(-1.38452e-05 9.03836e-07 -3.13909e-05)
(-5.37078e-06 -6.46912e-06 -3.16109e-05)
(2.37358e-07 -1.00456e-05 -3.24334e-05)
(2.9608e-06 -1.0266e-05 -3.36278e-05)
(5.62805e-06 -7.18119e-06 -3.41962e-05)
(6.8734e-06 -3.88631e-06 -3.21933e-05)
(7.83695e-06 -2.2581e-06 -3.28186e-05)
(9.64383e-06 -1.3293e-06 -3.2599e-05)
(7.91302e-06 -1.15633e-06 -3.03608e-05)
(3.11416e-06 -7.83632e-07 -3.11127e-05)
(4.98881e-09 -1.56008e-06 -3.19114e-05)
(-6.7538e-07 -2.74146e-06 -3.1968e-05)
(-4.58686e-07 -2.66079e-06 -3.16449e-05)
(-3.75395e-07 -1.40112e-06 -3.1725e-05)
(-4.19423e-07 2.72431e-07 -3.1856e-05)
(-4.42174e-07 4.42192e-07 -3.08412e-05)
(-9.79392e-07 2.30098e-07 -3.12536e-05)
(-4.06533e-06 -1.57434e-06 -2.98151e-05)
(-8.7686e-06 -1.97352e-06 -3.12714e-05)
(-1.10179e-05 -1.64208e-06 -3.23801e-05)
(-1.12401e-05 -9.04869e-07 -3.18329e-05)
(-9.21721e-06 -3.975e-07 -3.33323e-05)
(-5.32545e-06 1.11418e-06 -3.38641e-05)
(-1.6318e-06 2.39552e-06 -3.29688e-05)
(5.73623e-06 -4.01273e-07 -3.07641e-05)
(2.60352e-05 -6.38103e-06 -2.60614e-05)
(6.48989e-05 -9.63273e-06 -2.01584e-05)
(0.000142191 -9.07939e-06 -9.21382e-05)
(-2.52394e-05 2.62169e-06 -3.80893e-05)
(-1.83006e-05 2.65353e-06 -2.68846e-05)
(-1.54194e-05 -3.65372e-06 -3.18266e-05)
(-6.59235e-06 -1.28391e-05 -3.37116e-05)
(-1.24815e-07 -1.54464e-05 -3.33205e-05)
(3.10552e-06 -1.44509e-05 -3.41051e-05)
(6.02172e-06 -1.09595e-05 -3.42216e-05)
(7.28479e-06 -8.30079e-06 -3.24594e-05)
(8.29969e-06 -6.99816e-06 -3.31072e-05)
(9.99167e-06 -5.08373e-06 -3.29966e-05)
(8.2455e-06 -4.11699e-06 -3.15266e-05)
(3.35076e-06 -1.91199e-06 -3.1808e-05)
(-9.22816e-08 -3.04764e-06 -3.24691e-05)
(-7.04839e-07 -5.2917e-06 -3.25454e-05)
(-2.14438e-07 -5.61088e-06 -3.20723e-05)
(-5.36663e-08 -4.27882e-06 -3.207e-05)
(-2.93822e-07 -2.62379e-06 -3.23571e-05)
(-4.71392e-07 -2.6401e-06 -3.23812e-05)
(-1.23296e-06 -2.0394e-06 -3.20685e-05)
(-4.36228e-06 -4.24453e-06 -3.11475e-05)
(-8.89898e-06 -3.83642e-06 -3.19295e-05)
(-1.12203e-05 -4.31701e-06 -3.25756e-05)
(-1.13158e-05 -4.97467e-06 -3.20001e-05)
(-9.01675e-06 -5.44408e-06 -3.3571e-05)
(-4.99387e-06 -2.98121e-06 -3.40255e-05)
(-1.77133e-06 -4.20264e-07 -3.25885e-05)
(4.75681e-06 -3.24477e-06 -3.08241e-05)
(2.49173e-05 -9.73103e-06 -2.68824e-05)
(6.4361e-05 -1.36072e-05 -2.04858e-05)
(0.000141417 -1.15444e-05 -9.07656e-05)
(-2.84076e-05 -3.90209e-06 -3.86384e-05)
(-2.03694e-05 -8.24071e-07 -2.67087e-05)
(-1.71565e-05 -8.07375e-06 -3.20873e-05)
(-7.8119e-06 -1.73336e-05 -3.58809e-05)
(-4.46502e-07 -2.09506e-05 -3.48421e-05)
(3.2591e-06 -1.93725e-05 -3.46852e-05)
(6.17481e-06 -1.57689e-05 -3.42315e-05)
(7.54131e-06 -1.33818e-05 -3.28272e-05)
(8.86651e-06 -1.21877e-05 -3.35787e-05)
(1.05326e-05 -8.86063e-06 -3.35585e-05)
(8.82982e-06 -5.76172e-06 -3.32192e-05)
(3.71759e-06 -2.27361e-06 -3.25936e-05)
(-3.12478e-07 -3.89626e-06 -3.32716e-05)
(-8.44176e-07 -7.54908e-06 -3.31708e-05)
(-9.9354e-09 -8.538e-06 -3.28369e-05)
(2.51169e-07 -7.08032e-06 -3.27457e-05)
(-1.36134e-07 -4.87151e-06 -3.29683e-05)
(-4.6061e-07 -3.64358e-06 -3.38566e-05)
(-1.4931e-06 -3.30455e-06 -3.29755e-05)
(-4.57965e-06 -5.20656e-06 -3.30115e-05)
(-9.05842e-06 -5.09882e-06 -3.26945e-05)
(-1.1689e-05 -7.27925e-06 -3.28526e-05)
(-1.14945e-05 -9.50689e-06 -3.22926e-05)
(-8.60028e-06 -1.08754e-05 -3.39026e-05)
(-4.41059e-06 -7.28997e-06 -3.39716e-05)
(-1.85904e-06 -4.12896e-06 -3.21667e-05)
(3.85615e-06 -6.28878e-06 -3.10554e-05)
(2.38056e-05 -1.31491e-05 -2.72784e-05)
(6.37581e-05 -1.85989e-05 -2.06247e-05)
(0.000140518 -1.62088e-05 -8.84529e-05)
(-3.31714e-05 -1.09101e-05 -3.98246e-05)
(-2.30564e-05 -5.14907e-06 -2.63198e-05)
(-1.8655e-05 -1.33493e-05 -3.16952e-05)
(-8.96051e-06 -2.13083e-05 -3.63097e-05)
(-9.55104e-07 -2.61194e-05 -3.60413e-05)
(3.25226e-06 -2.50891e-05 -3.50868e-05)
(6.0111e-06 -2.19689e-05 -3.3909e-05)
(7.63311e-06 -1.95326e-05 -3.31307e-05)
(9.58715e-06 -1.80522e-05 -3.40361e-05)
(1.14106e-05 -1.28735e-05 -3.38842e-05)
(9.67271e-06 -6.21602e-06 -3.41226e-05)
(4.13872e-06 -2.24734e-06 -3.27594e-05)
(-6.80478e-07 -4.27347e-06 -3.31038e-05)
(-1.17335e-06 -9.95798e-06 -3.33734e-05)
(1.52413e-07 -1.12977e-05 -3.36168e-05)
(5.51764e-07 -9.652e-06 -3.34496e-05)
(1.84077e-07 -6.97395e-06 -3.31362e-05)
(-3.92824e-07 -3.87842e-06 -3.38299e-05)
(-1.73903e-06 -4.16209e-06 -3.32061e-05)
(-4.73682e-06 -4.74621e-06 -3.39516e-05)
(-9.45792e-06 -6.09257e-06 -3.2968e-05)
(-1.25148e-05 -1.07177e-05 -3.30118e-05)
(-1.17601e-05 -1.48794e-05 -3.25252e-05)
(-7.94409e-06 -1.70297e-05 -3.41008e-05)
(-3.71223e-06 -1.25095e-05 -3.35586e-05)
(-1.86513e-06 -8.54003e-06 -3.2319e-05)
(3.05443e-06 -9.50255e-06 -3.102e-05)
(2.24609e-05 -1.77278e-05 -2.67734e-05)
(6.29309e-05 -2.52251e-05 -2.05099e-05)
(0.000139095 -2.36413e-05 -8.6135e-05)
(-3.90416e-05 -1.84408e-05 -4.16677e-05)
(-2.60661e-05 -1.07436e-05 -2.57626e-05)
(-1.96791e-05 -2.03924e-05 -3.07973e-05)
(-9.80283e-06 -2.70472e-05 -3.44466e-05)
(-1.66287e-06 -3.16934e-05 -3.57949e-05)
(2.86379e-06 -3.17638e-05 -3.47769e-05)
(5.42001e-06 -3.00663e-05 -3.32696e-05)
(7.6239e-06 -2.72049e-05 -3.31982e-05)
(1.05011e-05 -2.48203e-05 -3.40802e-05)
(1.26382e-05 -1.75373e-05 -3.35057e-05)
(1.0704e-05 -6.69776e-06 -3.33552e-05)
(4.50639e-06 -2.56873e-06 -3.18477e-05)
(-1.19279e-06 -5.83031e-06 -3.14076e-05)
(-1.61362e-06 -1.31533e-05 -3.27927e-05)
(3.46219e-07 -1.38982e-05 -3.36075e-05)
(7.67645e-07 -1.19858e-05 -3.33855e-05)
(5.7791e-07 -9.64246e-06 -3.248e-05)
(-2.75105e-07 -5.31012e-06 -3.20434e-05)
(-1.8859e-06 -5.54751e-06 -3.2357e-05)
(-4.81937e-06 -4.26726e-06 -3.30895e-05)
(-1.01758e-05 -7.37594e-06 -3.22742e-05)
(-1.3735e-05 -1.48626e-05 -3.26797e-05)
(-1.20904e-05 -2.15919e-05 -3.24697e-05)
(-7.06687e-06 -2.42149e-05 -3.38329e-05)
(-2.93258e-06 -1.89334e-05 -3.28657e-05)
(-1.78759e-06 -1.23941e-05 -3.25692e-05)
(2.15761e-06 -1.33455e-05 -3.04344e-05)
(2.07179e-05 -2.44263e-05 -2.57266e-05)
(6.17012e-05 -3.38855e-05 -2.03521e-05)
(0.000137743 -3.33759e-05 -8.46387e-05)
(-4.58099e-05 -2.57264e-05 -4.35987e-05)
(-2.9135e-05 -1.77743e-05 -2.49982e-05)
(-2.02616e-05 -2.89334e-05 -2.95087e-05)
(-1.01373e-05 -3.61923e-05 -3.09556e-05)
(-2.37982e-06 -3.88634e-05 -3.33885e-05)
(2.00658e-06 -3.97507e-05 -3.30318e-05)
(4.31467e-06 -4.00002e-05 -3.21802e-05)
(7.578e-06 -3.68028e-05 -3.28632e-05)
(1.16138e-05 -3.28539e-05 -3.31095e-05)
(1.40513e-05 -2.34257e-05 -3.1958e-05)
(1.17683e-05 -8.5673e-06 -3.06099e-05)
(4.6578e-06 -3.90737e-06 -2.96344e-05)
(-1.78992e-06 -9.64134e-06 -2.87343e-05)
(-1.88851e-06 -1.77027e-05 -3.11511e-05)
(6.79334e-07 -1.7065e-05 -3.16786e-05)
(7.6764e-07 -1.47974e-05 -3.14308e-05)
(7.90999e-07 -1.35236e-05 -3.07629e-05)
(-1.46179e-07 -9.24581e-06 -2.92316e-05)
(-1.83115e-06 -8.28445e-06 -3.03441e-05)
(-4.78695e-06 -5.21604e-06 -3.01963e-05)
(-1.11217e-05 -9.55567e-06 -3.01844e-05)
(-1.53154e-05 -2.01086e-05 -3.13158e-05)
(-1.24362e-05 -3.01902e-05 -3.19446e-05)
(-5.95775e-06 -3.27159e-05 -3.25583e-05)
(-1.98844e-06 -2.6025e-05 -3.14979e-05)
(-1.71565e-06 -1.56508e-05 -3.11706e-05)
(9.29759e-07 -1.77374e-05 -2.89875e-05)
(1.84954e-05 -3.31495e-05 -2.44487e-05)
(6.00164e-05 -4.46208e-05 -2.01823e-05)
(0.000136304 -4.41111e-05 -8.34884e-05)
(-5.25177e-05 -3.26232e-05 -4.40662e-05)
(-3.20271e-05 -2.64033e-05 -2.36893e-05)
(-2.04094e-05 -3.86724e-05 -2.68473e-05)
(-1.00517e-05 -4.85523e-05 -2.66354e-05)
(-2.85793e-06 -4.87859e-05 -2.84752e-05)
(7.85629e-07 -4.97203e-05 -2.9097e-05)
(2.69444e-06 -5.14597e-05 -3.00642e-05)
(7.50573e-06 -4.86527e-05 -3.19061e-05)
(1.28458e-05 -4.27583e-05 -3.04426e-05)
(1.53255e-05 -3.1209e-05 -2.88602e-05)
(1.26373e-05 -1.3088e-05 -2.604e-05)
(4.54264e-06 -6.85226e-06 -2.59276e-05)
(-2.33745e-06 -1.55309e-05 -2.54768e-05)
(-1.80151e-06 -2.40742e-05 -2.81742e-05)
(1.16821e-06 -2.25376e-05 -2.71561e-05)
(4.90475e-07 -1.98273e-05 -2.69325e-05)
(6.22852e-07 -1.91372e-05 -2.78209e-05)
(-6.19887e-08 -1.53996e-05 -2.6123e-05)
(-1.54865e-06 -1.29375e-05 -2.7197e-05)
(-4.62277e-06 -8.87129e-06 -2.5505e-05)
(-1.2076e-05 -1.34045e-05 -2.63171e-05)
(-1.7093e-05 -2.71383e-05 -2.83716e-05)
(-1.27003e-05 -4.11512e-05 -3.07988e-05)
(-4.54312e-06 -4.30584e-05 -2.95222e-05)
(-9.98493e-07 -3.39402e-05 -2.80668e-05)
(-1.78997e-06 -2.03028e-05 -2.69733e-05)
(-7.01327e-07 -2.31077e-05 -2.57537e-05)
(1.58424e-05 -4.3339e-05 -2.26012e-05)
(5.79606e-05 -5.74528e-05 -1.96501e-05)
(0.000134228 -5.51655e-05 -8.10521e-05)
(-5.85536e-05 -4.04827e-05 -4.20223e-05)
(-3.45709e-05 -3.69477e-05 -2.14887e-05)
(-2.01298e-05 -5.05034e-05 -2.18312e-05)
(-9.73799e-06 -6.31254e-05 -2.10795e-05)
(-3.05112e-06 -6.26291e-05 -2.12275e-05)
(-5.03004e-07 -6.26937e-05 -2.2616e-05)
(7.24351e-07 -6.44671e-05 -2.5921e-05)
(7.33943e-06 -6.29774e-05 -3.00694e-05)
(1.40104e-05 -5.5372e-05 -2.56125e-05)
(1.59896e-05 -4.15412e-05 -2.40625e-05)
(1.29835e-05 -2.10983e-05 -2.03789e-05)
(4.28955e-06 -1.22445e-05 -2.07788e-05)
(-2.58965e-06 -2.30774e-05 -2.14331e-05)
(-1.40694e-06 -3.26873e-05 -2.36699e-05)
(1.61508e-06 -3.21699e-05 -2.07165e-05)
(7.17932e-08 -2.89253e-05 -2.06089e-05)
(2.10764e-07 -2.69069e-05 -2.36098e-05)
(-8.43555e-08 -2.31131e-05 -2.23501e-05)
(-1.26881e-06 -1.99071e-05 -2.3016e-05)
(-4.40944e-06 -1.60585e-05 -1.98124e-05)
(-1.27278e-05 -2.00275e-05 -2.07111e-05)
(-1.87023e-05 -3.68999e-05 -2.36523e-05)
(-1.27451e-05 -5.47764e-05 -2.88992e-05)
(-2.93062e-06 -5.61863e-05 -2.41862e-05)
(-3.55894e-07 -4.43159e-05 -2.17987e-05)
(-2.19021e-06 -2.85136e-05 -2.05964e-05)
(-2.33e-06 -3.09598e-05 -2.05829e-05)
(1.31191e-05 -5.487e-05 -1.92547e-05)
(5.55889e-05 -7.25986e-05 -1.82608e-05)
(0.000131015 -6.70722e-05 -7.57335e-05)
(-6.35184e-05 -5.09001e-05 -3.799e-05)
(-3.65484e-05 -4.96357e-05 -1.82649e-05)
(-1.94204e-05 -6.57602e-05 -1.45167e-05)
(-9.40004e-06 -8.01774e-05 -1.35151e-05)
(-3.13844e-06 -8.09964e-05 -1.27443e-05)
(-1.43629e-06 -7.96114e-05 -1.41527e-05)
(-1.1875e-06 -8.00995e-05 -1.90976e-05)
(6.98558e-06 -7.97576e-05 -2.71122e-05)
(1.48038e-05 -7.14411e-05 -1.87409e-05)
(1.55167e-05 -5.47018e-05 -1.7762e-05)
(1.23141e-05 -3.22955e-05 -1.46776e-05)
(4.10208e-06 -2.11096e-05 -1.51875e-05)
(-2.13513e-06 -3.24206e-05 -1.63317e-05)
(-9.17403e-07 -4.38406e-05 -1.77221e-05)
(1.6579e-06 -4.60085e-05 -1.40728e-05)
(-2.01519e-07 -4.21198e-05 -1.4216e-05)
(-1.27334e-07 -3.7066e-05 -1.83914e-05)
(-2.75373e-07 -3.3041e-05 -1.7638e-05)
(-1.31297e-06 -2.93134e-05 -1.81359e-05)
(-4.38774e-06 -2.64547e-05 -1.42178e-05)
(-1.27707e-05 -3.05272e-05 -1.45008e-05)
(-1.94944e-05 -5.01882e-05 -1.77537e-05)
(-1.24103e-05 -7.10108e-05 -2.61483e-05)
(-1.55836e-06 -7.30516e-05 -1.67962e-05)
(-5.90239e-07 -5.87995e-05 -1.35144e-05)
(-3.06158e-06 -4.06659e-05 -1.37835e-05)
(-3.27245e-06 -4.22367e-05 -1.46119e-05)
(1.10139e-05 -6.87716e-05 -1.3805e-05)
(5.29514e-05 -9.02475e-05 -1.56186e-05)
(0.000125564 -8.12047e-05 -6.7133e-05)
(-6.6917e-05 -6.39976e-05 -3.37662e-05)
(-3.76566e-05 -6.42087e-05 -1.40436e-05)
(-1.85033e-05 -8.49114e-05 -6.19245e-06)
(-9.23712e-06 -0.000100522 -4.6911e-06)
(-3.28781e-06 -0.000102666 -4.65021e-06)
(-1.72853e-06 -0.000100379 -5.29455e-06)
(-2.4255e-06 -9.93978e-05 -1.05294e-05)
(6.47523e-06 -9.84917e-05 -2.27742e-05)
(1.48165e-05 -9.09681e-05 -1.06738e-05)
(1.34572e-05 -7.01611e-05 -1.03777e-05)
(9.95821e-06 -4.60527e-05 -9.90483e-06)
(4.02985e-06 -3.34176e-05 -1.15141e-05)
(-4.10376e-07 -4.44328e-05 -1.09088e-05)
(-3.62144e-07 -5.7387e-05 -1.08147e-05)
(1.00617e-06 -6.24729e-05 -8.51556e-06)
(-1.15435e-07 -5.78203e-05 -9.07394e-06)