/*--------------------------------*- C++ -*----------------------------------*\
| =========                 |                                                 |
| \\      /  F ield         | OpenFOAM: The Open Source CFD Toolbox           |
|  \\    /   O peration     | Version:  2106                                  |
|   \\  /    A nd           | Website:  www.openfoam.com                      |
|    \\/     M anipulation  |                                                 |
\*---------------------------------------------------------------------------*/
FoamFile
{
    version     2.0;
    format      ascii;
    arch        "LSB;label=32;scalar=64";
    class       volSymmTensorField;
    location    "387";
    object      epsilon;
}
// * * * * * * * * * * * * * * * * * * * * * * * * * * * * * * * * * * * * * //

dimensions      [0 0 0 0 0 0 0];

internalField   nonuniform List<symmTensor> 
9000
(
(-0.674144 -0.03301 0.0706429 -1.11886 0.743693 3.05909)
(-0.150409 0.00580608 -0.258991 -2.24529 0.992396 5.5585)
(-0.0485308 0.0120005 -0.752666 -1.49477 0.844005 3.44842)
(0.0794383 -0.0019453 -0.61063 -0.776 0.465507 1.45929)
(0.125532 -0.00361987 -0.188048 -0.306286 0.225612 0.171677)
(0.116085 -0.00384976 0.239713 -0.278764 0.197181 0.119341)
(0.00721662 -0.0108287 0.607017 -0.750725 0.411617 1.43945)
(-0.116299 0.00138042 0.294985 -1.61048 0.679205 3.84303)
(-0.0768984 0.0240453 -0.218031 -1.14408 0.654846 2.55839)
(0.0202806 0.00122699 -0.222302 -0.502942 0.59442 0.71609)
(0.0543795 -0.0214177 -0.0517596 -0.231074 0.312452 0.0399773)
(0.0559665 -0.00586519 0.1315 -0.191796 0.167127 -0.0489625)
(-0.00630926 0.00405323 0.324836 -0.398639 0.306174 0.541816)
(-0.0556423 0.00165797 0.0886108 -0.777328 0.456665 1.54477)
(0.0136599 -1.31454e-05 -0.0855591 -0.568062 0.422626 0.959835)
(0.0272873 -0.000751631 0.201684 -0.615714 0.441566 1.06923)
(-0.0505247 0.0028371 0.126123 -0.99571 0.563904 2.10741)
(-0.0482769 0.0102137 -0.153905 -0.823177 0.591109 1.68791)
(0.0144777 -0.00573093 -0.1951 -0.417139 0.54136 0.493027)
(0.0668878 -0.0230117 -0.0464425 -0.21168 0.28058 -0.0263527)
(0.0910451 -0.0119877 0.245736 -0.268404 0.18304 0.11435)
(-0.00901228 -0.0120985 0.591569 -0.813773 0.423294 1.62857)
(-0.130444 0.00187474 0.192245 -1.76207 0.738387 4.26911)
(-0.078361 0.01754 -0.347762 -1.28064 0.69753 2.9246)
(0.0132888 0.00656328 -0.342105 -0.917264 0.611958 1.89861)
(0.0625201 -0.00254221 -0.240421 -0.647773 0.480592 1.14583)
(0.101581 -0.0032214 0.0713319 -0.528833 0.36899 0.795922)
(0.0795757 -0.00262895 0.460152 -0.700717 0.436352 1.24098)
(0.0785226 -0.0121839 0.576898 -0.795531 0.482263 1.48083)
(0.0679404 0.0011507 0.42573 0.00707673 0.121303 -0.638666)
(-0.322477 -0.0865465 -0.102052 -0.615373 1.47366 1.25385)
(-0.0688424 -0.000126636 -0.285763 -1.1971 1.73415 2.73686)
(-0.0139797 0.0703051 -0.461201 -0.826699 1.61425 1.66928)
(0.0590792 0.0282241 -0.346572 -0.38162 0.922659 0.473357)
(0.0824595 0.00413104 -0.0886028 -0.121498 0.478696 -0.239728)
(0.0733708 -0.0220633 0.142777 -0.0934475 0.421768 -0.304854)
(0.00699117 -0.0646477 0.341966 -0.386362 0.791413 0.479368)
(-0.0683032 -0.00779334 0.190291 -0.845966 1.16995 1.78575)
(-0.0449515 0.0864031 -0.0544011 -0.617165 1.26397 1.13165)
(0.0127657 0.0270614 -0.0642381 -0.353421 1.29599 0.27198)
(0.0315505 -0.0418196 0.0212479 -0.110218 0.703696 -0.288471)
(0.0325688 -0.0201277 0.10751 -0.0458757 0.375157 -0.411055)
(-0.00884982 -0.0113108 0.213847 -0.195587 0.637399 0.0131737)
(-0.0417235 -0.000370713 0.046546 -0.444183 0.886714 0.726668)
(0.0105133 0.00819448 -0.0712463 -0.301385 0.864975 0.239123)
(0.0203761 -0.0175548 0.128718 -0.328149 0.896531 0.296802)
(-0.0335757 0.000844848 0.0745821 -0.570471 1.07999 1.03848)
(-0.0285071 0.0408367 -0.0833668 -0.465818 1.19608 0.702071)
(0.0116965 0.0016425 -0.0847586 -0.310963 1.18905 0.159769)
(0.0386927 -0.0502617 -0.0076333 -0.0996809 0.631358 -0.314519)
(0.0512696 -0.0467543 0.127665 -0.0855703 0.393318 -0.314777)
(-0.00810917 -0.0722301 0.287685 -0.408986 0.808304 0.569694)
(-0.0812053 -0.00835768 0.0774351 -0.918164 1.27155 2.00277)
(-0.0492334 0.0674668 -0.205116 -0.679992 1.33376 1.31916)
(0.00901737 0.0345458 -0.215529 -0.480608 1.2305 0.755772)
(0.0470396 0.00538825 -0.146802 -0.323467 0.989627 0.306331)
(0.0852168 -0.0107758 0.0739699 -0.238452 0.760503 0.060479)
(0.0920542 -0.0176807 0.400212 -0.364957 0.85889 0.372362)
(0.12186 -0.00847277 0.67322 -0.440388 0.927989 0.517338)
(0.209185 0.0246691 0.57783 0.0442036 0.296998 -1.16895)
(-0.141174 -0.0844066 -0.237445 -0.327228 1.65892 0.375981)
(0.00526172 -0.00463576 -0.30509 -0.552595 1.87157 1.19392)
(0.0142771 0.0678436 -0.253684 -0.453774 1.76518 0.854162)
(0.039479 0.02292 -0.169982 -0.172856 1.07812 0.0772207)
(0.0460953 -0.000753195 -0.0289731 -0.0367711 0.592837 -0.340354)
(0.0369458 -0.0220414 0.0719708 -0.0122383 0.548523 -0.410706)
(0.0073257 -0.0649881 0.149537 -0.186402 0.905126 0.05119)
(-0.0243516 -0.00589476 0.116956 -0.373762 1.27105 0.650633)
(-0.0189877 0.0785394 0.0667449 -0.329135 1.40871 0.485453)
(0.00090733 0.0197219 0.0357683 -0.336577 1.36819 0.306981)
(0.0121232 -0.0409688 0.0467282 -0.102984 0.818468 -0.248209)
(0.0160512 -0.0234941 0.082086 0.00149296 0.499389 -0.476027)
(-0.00940196 -0.0197958 0.13114 -0.12151 0.739312 -0.119226)
(-0.0289908 0.00125568 0.0209539 -0.26925 0.954471 0.373261)
(0.00667526 0.0154679 -0.050405 -0.189441 0.975324 0.0282779)
(0.0142012 -0.02367 0.0661928 -0.200415 1.00966 0.0526617)
(-0.017512 2.23945e-05 0.0410109 -0.334941 1.15981 0.545007)
(-0.0141602 0.0379428 -0.0279155 -0.317677 1.30765 0.397154)
(0.00451067 -0.00375644 -0.0259889 -0.324898 1.24321 0.255472)
(0.014776 -0.0484567 -0.00910194 -0.0941719 0.7373 -0.265698)
(0.0198099 -0.046971 0.0298151 -0.00595654 0.522583 -0.433784)
(-0.00503014 -0.0722742 0.0669948 -0.178848 0.939183 0.0704478)
(-0.0353605 -0.00538909 -1.96781e-05 -0.395843 1.38776 0.748943)
(-0.0237234 0.0701909 -0.0892809 -0.336153 1.49812 0.552144)
(0.00282693 0.0341035 -0.118436 -0.268821 1.38897 0.339111)
(0.0322228 0.00571325 -0.0841635 -0.182912 1.13789 0.0560337)
(0.0701245 -0.0143247 0.0679123 -0.107336 0.916504 -0.169912)
(0.101031 -0.0274261 0.346169 -0.197794 0.974496 0.0454721)
(0.159908 -0.0121249 0.728342 -0.261284 0.991134 0.11737)
(0.289957 0.0254094 0.697724 0.0590715 0.407666 -1.427)
(-0.0230612 -0.0598987 -0.327249 -0.273524 1.58696 -0.0457571)
(0.06056 -0.00707351 -0.318653 -0.352272 1.74268 0.387303)
(0.0356714 0.0409809 -0.118327 -0.36798 1.63468 0.477445)
(0.0245122 0.00814041 -0.0514676 -0.165387 1.06606 -0.00278333)
(0.0186592 -0.0068505 0.0104043 -0.0627099 0.616201 -0.275899)
(0.00964435 -0.0152424 0.0231096 -0.0548353 0.584982 -0.312688)
(0.0074529 -0.0426527 0.0194906 -0.165934 0.875021 -0.0835934)
(0.00739865 -0.000531809 0.0667462 -0.232289 1.19211 0.0676862)
(-0.000198247 0.0431398 0.131702 -0.283682 1.32618 0.226207)
(-0.00629744 0.0035787 0.0988916 -0.356344 1.17488 0.317447)
(-0.00202759 -0.0276938 0.0715091 -0.172324 0.769013 -0.0983872)
(0.00210023 -0.020296 0.0615451 -0.0646366 0.527806 -0.337956)
(-0.00923231 -0.0221873 0.062705 -0.157001 0.701173 -0.0804404)
(-0.0171008 0.00355161 0.00333773 -0.230933 0.858265 0.190252)
(0.00270888 0.0187092 -0.0290086 -0.205849 0.913238 0.0101306)
(0.00824339 -0.0223573 0.0149848 -0.209836 0.948131 0.0153575)
(-0.00494843 -0.00254052 0.0148698 -0.272838 1.04963 0.281558)
(-0.00377673 0.0212715 0.00470098 -0.318602 1.17235 0.299365)
(-0.000480794 -0.00835662 0.00959121 -0.355127 1.04301 0.29642)
(-0.0029604 -0.030524 -0.00542527 -0.161339 0.692736 -0.114172)
(-0.00421971 -0.0303858 -0.0400218 -0.0566661 0.561622 -0.327889)
(-0.00229204 -0.046513 -0.0824014 -0.154902 0.927669 -0.0869037)
(-0.000257737 0.000983789 -0.0526613 -0.240441 1.30968 0.10683)
(-0.00403269 0.0491182 -0.0135281 -0.272682 1.43423 0.236092)
(-0.00143291 0.0209167 -0.049016 -0.262713 1.3135 0.230105)
(0.020459 0.00339114 -0.0382002 -0.208176 1.08853 0.0608808)
(0.0570672 -0.0136603 0.0612725 -0.14692 0.915114 -0.112851)
(0.107016 -0.0288147 0.301795 -0.196363 0.925278 -0.0154385)
(0.189476 -0.0156275 0.761201 -0.228959 0.878398 -0.0543898)
(0.336996 0.0165397 0.782425 0.0162545 0.45549 -1.50554)
(0.0575505 -0.0317239 -0.372372 -0.286223 1.40624 -0.293328)
(0.0947049 -0.00685447 -0.326008 -0.320337 1.52015 -0.0240539)
(0.0500883 0.00886047 -0.0446473 -0.361458 1.39719 0.247551)
(0.0156216 -0.00737807 0.024004 -0.212803 0.948702 -0.00351207)
(8.6132e-05 -0.0119379 0.0365434 -0.12305 0.565205 -0.176933)
(-0.00811725 -0.00705649 -0.00747828 -0.128318 0.528241 -0.184298)
(0.00733515 -0.013244 -0.0549103 -0.19418 0.759403 -0.131344)
(0.0255444 0.0052637 0.0351716 -0.218744 1.04004 -0.217174)
(0.0118698 0.00915867 0.151994 -0.302575 1.13765 0.0911364)
(-0.00754566 -0.0115766 0.134923 -0.33672 0.931698 0.206847)
(-0.0110202 -0.0185283 0.0975331 -0.223157 0.62665 -0.0131278)
(-0.00951245 -0.0148435 0.0474477 -0.146364 0.45584 -0.190477)
(-0.00888221 -0.016199 0.0114283 -0.196608 0.575512 -0.0528246)
(-0.00736585 0.00623253 -0.00808685 -0.224088 0.706201 0.0441952)
(-0.000696537 0.0166935 -0.0129296 -0.239978 0.767 0.00998818)
(0.00299893 -0.0152905 -0.0212395 -0.242008 0.80191 0.00621766)
(0.00337398 -0.00382606 -0.00666289 -0.257725 0.878186 0.0894983)
(0.00368039 0.00529315 0.0187049 -0.322827 0.95371 0.186025)
(-0.00209117 -0.0123283 0.0322583 -0.333265 0.798466 0.194839)
(-0.0144614 -0.0159164 0.00582741 -0.211015 0.558808 -0.0267417)
(-0.0206805 -0.0106279 -0.0815813 -0.13804 0.499826 -0.189663)
(-0.000953634 -0.0128458 -0.168817 -0.198088 0.81841 -0.118341)
(0.0214207 0.00731086 -0.0872021 -0.229052 1.15044 -0.201614)
(0.00930408 0.0212169 0.0213398 -0.296795 1.25555 0.0893944)
(-0.00247286 0.00450143 -0.00655026 -0.29673 1.12678 0.170872)
(0.0129483 -0.001507 -0.00603777 -0.25592 0.92821 0.0820286)
(0.0476305 -0.00975661 0.0583997 -0.218914 0.792152 -0.0194504)
(0.109908 -0.0204868 0.274854 -0.229156 0.785681 -0.0220005)
(0.207512 -0.0180512 0.776645 -0.227121 0.710586 -0.150839)
(0.364091 0.00309175 0.823636 -0.0330825 0.443748 -1.52322)
(0.114524 -0.00883331 -0.383115 -0.285759 1.18965 -0.49699)
(0.110476 -0.00477497 -0.326708 -0.323391 1.26771 -0.238932)
(0.0581017 -0.0171599 -0.0174924 -0.344171 1.13461 0.0360031)
(0.0121179 -0.0215218 0.0663694 -0.23518 0.781236 -0.0551758)
(-0.0106881 -0.0163248 0.0519011 -0.168947 0.458071 -0.126188)
(-0.0173904 0.00168669 -0.0234036 -0.168032 0.412167 -0.141905)
(0.00696502 0.0130465 -0.0843633 -0.200796 0.608957 -0.207117)
(0.0325147 0.00956007 0.0180236 -0.229303 0.858418 -0.361931)
(0.0184079 -0.0124533 0.146044 -0.301995 0.912368 -0.0493578)
(-0.00526254 -0.0218328 0.150303 -0.288131 0.713236 0.022405)
(-0.0157847 -0.0176397 0.116007 -0.220729 0.462829 -0.058667)
(-0.0175857 -0.0094492 0.0387762 -0.179182 0.326771 -0.146318)
(-0.00851745 -0.00521201 -0.0197074 -0.19059 0.42787 -0.127409)
(-0.000922323 0.00731054 -0.0139929 -0.207837 0.546673 -0.108301)
(-0.0030088 0.0113802 -0.00467545 -0.247361 0.590451 -0.0509846)
(-0.000724409 -0.00575322 -0.0416685 -0.249862 0.62453 -0.0576379)
(0.0078792 -0.00249343 -0.0218118 -0.239338 0.697715 -0.0878469)
(0.0084231 -0.00472809 0.0217298 -0.294073 0.729985 0.0223501)
(-0.00181215 -0.0155262 0.0436986 -0.277189 0.585463 0.00850383)
(-0.0206145 -0.0108628 0.0153874 -0.208713 0.403569 -0.0694496)
(-0.0296643 0.00405212 -0.100714 -0.178443 0.373959 -0.140674)
(-0.000963456 0.016752 -0.205344 -0.223656 0.655354 -0.163693)
(0.0308688 0.0122785 -0.108318 -0.245724 0.955708 -0.351926)
(0.0169558 -0.00215392 0.0239227 -0.308019 1.02798 -0.044485)
(-0.000704345 -0.00883459 0.0126408 -0.296963 0.903885 0.0484539)
(0.00965423 -0.00737943 0.0128206 -0.259595 0.733504 0.00262041)
(0.0424947 -0.00539846 0.060677 -0.240617 0.613669 -0.0347852)
(0.109749 -0.00854442 0.267031 -0.230402 0.614608 -0.0821364)
(0.213601 -0.0193784 0.776529 -0.214211 0.540489 -0.23113)
(0.38137 -0.00969009 0.824306 -0.0583655 0.398635 -1.55371)
(0.155019 0.00618263 -0.371977 -0.254328 0.985532 -0.691622)
(0.113028 -0.00187107 -0.320248 -0.314276 1.01996 -0.360075)
(0.0605695 -0.0323063 -0.0189883 -0.300749 0.896098 -0.173576)
(0.0121528 -0.0337381 0.0822545 -0.222077 0.615102 -0.165403)
(-0.014905 -0.0199475 0.058068 -0.175774 0.324717 -0.160732)
(-0.0201144 0.0110164 -0.0265397 -0.160709 0.286646 -0.201771)
(0.0061003 0.0306621 -0.083022 -0.177527 0.47002 -0.319482)
(0.0320256 0.0115703 0.0107579 -0.226252 0.676401 -0.447709)
(0.0210135 -0.0219595 0.128781 -0.267338 0.700721 -0.21536)
(-0.00207302 -0.0270064 0.152493 -0.231256 0.53402 -0.173732)
(-0.0175455 -0.0206153 0.122316 -0.187851 0.323728 -0.170401)
(-0.0215844 -0.00453664 0.034316 -0.156919 0.200194 -0.222286)
(-0.00840084 0.00523606 -0.0321681 -0.155714 0.308115 -0.252484)
(0.00214519 0.00527977 -0.0171268 -0.177402 0.404839 -0.261401)
(-0.00395518 0.0052019 -0.00279978 -0.223121 0.41805 -0.161875)
(-0.00273698 0.003398 -0.049543 -0.226972 0.450188 -0.167848)
(0.00953016 0.00113727 -0.0308947 -0.207641 0.534107 -0.255227)
(0.0109291 -0.00936655 0.0196355 -0.239164 0.538369 -0.176167)
(-0.00125935 -0.0175271 0.0475934 -0.213685 0.417845 -0.190795)
(-0.0231005 -0.0116638 0.017204 -0.176737 0.272363 -0.177914)
(-0.0322798 0.0119911 -0.10675 -0.163205 0.242771 -0.211163)
(-0.00166906 0.035787 -0.20753 -0.209139 0.488691 -0.259729)
(0.0314538 0.0155563 -0.119616 -0.246763 0.756965 -0.436804)
(0.0203299 -0.0157313 0.00714732 -0.282105 0.805819 -0.203395)
(0.0026082 -0.0168946 0.0161972 -0.256533 0.699771 -0.134821)
(0.00944356 -0.0122949 0.0214319 -0.227124 0.559776 -0.139353)
(0.0409938 -0.00234896 0.066226 -0.208719 0.448543 -0.155752)
(0.107208 1.24336e-05 0.272784 -0.197395 0.461585 -0.194664)
(0.210196 -0.0194763 0.763724 -0.185883 0.393675 -0.306705)
(0.391042 -0.0186804 0.799177 -0.0623624 0.351242 -1.59712)
(0.178934 0.0147429 -0.349227 -0.209298 0.82272 -0.849139)
(0.107072 0.000672905 -0.306666 -0.287603 0.797989 -0.43226)
(0.0586491 -0.0376965 -0.034058 -0.2489 0.702208 -0.349704)
(0.013829 -0.0420245 0.0769939 -0.196507 0.471198 -0.283667)
(-0.0139793 -0.0214379 0.0573133 -0.143637 0.205395 -0.279947)
(-0.0185221 0.0184681 -0.0181222 -0.126012 0.185024 -0.318581)
(0.00454462 0.0385265 -0.0647445 -0.148086 0.360325 -0.421681)
(0.0275233 0.0120672 0.00918753 -0.206119 0.51349 -0.506947)
(0.0210209 -0.023193 0.108803 -0.215887 0.528452 -0.376659)
(0.00067372 -0.0297624 0.146615 -0.176831 0.394765 -0.350122)
(-0.017202 -0.0227085 0.119631 -0.150372 0.208497 -0.287842)
(-0.0223586 -0.000248599 0.033555 -0.110421 0.110765 -0.347644)
(-0.00883006 0.0114842 -0.0323597 -0.123934 0.216217 -0.359228)
(0.0026203 0.00239129 -0.0210178 -0.141364 0.290195 -0.395631)
(-0.00346173 0.000177077 -0.00600026 -0.172219 0.271904 -0.314745)
(-0.00302286 0.0102618 -0.0477116 -0.177363 0.300895 -0.318586)
(0.00920255 0.00595978 -0.0330208 -0.169108 0.398918 -0.398884)
(0.0113753 -0.0106782 0.0151813 -0.181865 0.396504 -0.357724)
(-0.00104249 -0.0200735 0.0457727 -0.156197 0.293136 -0.366587)
(-0.0231293 -0.0130662 0.0128708 -0.14038 0.163965 -0.292255)
(-0.0307158 0.0163169 -0.105689 -0.118799 0.14574 -0.33781)
(-0.00260744 0.0430533 -0.191476 -0.1697 0.350998 -0.379524)
(0.0271213 0.0171681 -0.124023 -0.226648 0.576853 -0.495465)
(0.0207761 -0.0195573 -0.0168249 -0.23484 0.620013 -0.361704)
(0.00618496 -0.0212689 0.0102369 -0.200154 0.540746 -0.32485)
(0.0111402 -0.0155277 0.0231006 -0.182846 0.41565 -0.288479)
(0.0416346 -0.00021575 0.0739698 -0.156417 0.324019 -0.306715)
(0.103234 0.00261212 0.28388 -0.157827 0.344418 -0.305067)
(0.200711 -0.018284 0.742597 -0.151737 0.278106 -0.369477)
(0.390466 -0.0231213 0.765943 -0.0661287 0.311247 -1.61408)
(0.183489 0.0192804 -0.32014 -0.176266 0.698563 -0.926194)
(0.0957978 0.00246434 -0.287422 -0.251272 0.609478 -0.473342)
(0.0538146 -0.0373528 -0.0539057 -0.207139 0.548527 -0.465225)
(0.0160866 -0.0444992 0.0587838 -0.170114 0.342694 -0.383781)
(-0.00991334 -0.0195782 0.0527458 -0.095915 0.1248 -0.424358)
(-0.014798 0.0207184 -0.00291785 -0.0880486 0.115394 -0.439005)
(0.00267801 0.0385954 -0.0401072 -0.128553 0.268626 -0.483887)
(0.0215972 0.0127621 0.0110904 -0.176624 0.378026 -0.549738)
(0.0192106 -0.0197038 0.090978 -0.167059 0.398231 -0.501991)
(0.00249432 -0.0310841 0.134389 -0.130532 0.29209 -0.485676)
(-0.0153247 -0.0228539 0.112082 -0.105657 0.115105 -0.416408)
(-0.0211576 0.00226661 0.035943 -0.0678195 0.05627 -0.463184)
(-0.00958565 0.0136014 -0.0266658 -0.0996611 0.138413 -0.442099)
(0.00166 0.00245094 -0.0249955 -0.10724 0.202489 -0.499296)
(-0.0021556 -0.00144663 -0.0116852 -0.109159 0.175245 -0.479292)
(-0.0021055 0.0128634 -0.0399793 -0.114903 0.200347 -0.481501)
(0.00776128 0.00811033 -0.0289123 -0.131646 0.293232 -0.508273)
(0.00999286 -0.0101555 0.0101611 -0.14057 0.288855 -0.476282)
(-0.00118977 -0.0220565 0.0376045 -0.109175 0.20452 -0.499141)
(-0.0212217 -0.0132344 0.00547735 -0.0963639 0.076513 -0.419162)
(-0.0271157 0.0188069 -0.0990038 -0.0749895 0.0854178 -0.458807)
(-0.00371193 0.0416614 -0.169183 -0.127151 0.250011 -0.48559)
(0.0210534 0.0172637 -0.123949 -0.193686 0.426732 -0.540258)
(0.0193081 -0.0169019 -0.0396221 -0.187627 0.475696 -0.48657)
(0.00908797 -0.0227164 -0.0022404 -0.153584 0.425267 -0.470338)
(0.0139957 -0.016977 0.0186511 -0.13225 0.304033 -0.438523)
(0.043078 -0.000374563 0.0822309 -0.108634 0.240199 -0.444495)
(0.0986606 0.000495454 0.293772 -0.129149 0.250691 -0.379459)
(0.188711 -0.0161096 0.718381 -0.120934 0.189161 -0.412535)
(0.379305 -0.0219949 0.733756 -0.0832983 0.265011 -1.58146)
(0.170409 0.0215303 -0.285016 -0.164843 0.590169 -0.916348)
(0.0812668 0.00387787 -0.264334 -0.212355 0.453467 -0.493824)
(0.0473634 -0.0338257 -0.0751758 -0.178944 0.418881 -0.522072)
(0.0185305 -0.0412663 0.036834 -0.133708 0.230699 -0.489271)
(-0.00469675 -0.0158091 0.0484427 -0.055902 0.0796724 -0.544725)
(-0.0106041 0.0174826 0.0125819 -0.0600751 0.0704243 -0.532444)
(0.00125421 0.0340142 -0.0154492 -0.114058 0.184233 -0.524244)
(0.015885 0.0143109 0.0165704 -0.145245 0.270391 -0.579818)
(0.0161935 -0.0141374 0.0775025 -0.130286 0.300566 -0.580165)
(0.00332738 -0.0291565 0.118311 -0.0956327 0.21775 -0.575893)
(-0.0127038 -0.0213438 0.102435 -0.0531265 0.0598173 -0.552155)
(-0.0189959 0.00157354 0.0394118 -0.0355871 0.0255088 -0.551876)
(-0.0100066 0.0129787 -0.0191413 -0.0733216 0.0738299 -0.515734)
(0.00035964 0.00563625 -0.0256895 -0.0782089 0.138159 -0.571692)
(-0.00105282 0.000312734 -0.0157307 -0.0607872 0.12698 -0.596218)
(-0.00113252 0.0114481 -0.0314918 -0.0663242 0.148194 -0.597802)
(0.00603219 0.00607591 -0.0239855 -0.0989697 0.213634 -0.583747)
(0.00788693 -0.00871903 0.00549508 -0.105938 0.199238 -0.560624)
(-0.00156501 -0.0204886 0.0260894 -0.072574 0.143421 -0.589302)
(-0.0182738 -0.0123223 -0.00268538 -0.0438255 0.0268751 -0.554907)
(-0.0229793 0.0180807 -0.0886749 -0.0423234 0.0510925 -0.550283)
(-0.00486201 0.0355089 -0.147417 -0.093624 0.178554 -0.558894)
(0.015182 0.0160688 -0.121361 -0.157361 0.308602 -0.573775)
(0.0168994 -0.0120083 -0.0574311 -0.150994 0.363703 -0.565999)
(0.01098 -0.0203562 -0.0173891 -0.127211 0.335083 -0.551542)
(0.0168236 -0.0164392 0.0106355 -0.0863757 0.235318 -0.56563)
(0.0444029 -0.00451 0.0874887 -0.0777229 0.185403 -0.534427)
(0.0946094 -0.00411897 0.29635 -0.106052 0.169069 -0.434756)
(0.178317 -0.0139871 0.695702 -0.0967004 0.119721 -0.440356)
(0.364665 -0.0170195 0.701401 -0.107485 0.199043 -1.52305)
(0.14719 0.0216108 -0.242914 -0.161667 0.479547 -0.859912)
(0.0654396 0.00500624 -0.238869 -0.173312 0.327156 -0.504769)
(0.0403972 -0.0275733 -0.0945647 -0.152575 0.302966 -0.552477)
(0.0206875 -0.0339036 0.0172752 -0.0870916 0.154417 -0.601857)
(0.000135304 -0.0134185 0.0453863 -0.032548 0.057887 -0.622228)
(-0.00671239 0.0111109 0.0238419 -0.0445486 0.0396926 -0.591816)
(0.000782146 0.0276567 0.00590637 -0.0959049 0.110191 -0.562096)
(0.0112094 0.0157695 0.0252808 -0.116491 0.187259 -0.599793)
(0.0127562 -0.00822557 0.0689781 -0.105823 0.224388 -0.618194)
(0.00332047 -0.0231161 0.10306 -0.0722 0.163833 -0.626312)
(-0.0104012 -0.0184077 0.0924733 -0.0112152 0.0463518 -0.651666)
(-0.0165936 -0.0016382 0.0404862 -0.0126128 0.0124101 -0.612749)
(-0.00958158 0.0107164 -0.0119551 -0.0417389 0.030928 -0.58807)
(-0.000638979 0.0086184 -0.0217538 -0.055573 0.0932785 -0.616586)
(-0.000659915 0.00294758 -0.0161588 -0.0400328 0.102507 -0.6443)
(-0.000761687 0.00872646 -0.0250455 -0.0448279 0.120311 -0.645957)
(0.00450317 0.00348189 -0.0216688 -0.0725902 0.15643 -0.630215)
(0.00604919 -0.00679438 0.00160503 -0.0669573 0.137781 -0.638462)
(-0.00207484 -0.0160844 0.0158977 -0.0452756 0.104843 -0.643963)
(-0.0154715 -0.011018 -0.0105016 -0.00133936 0.0193613 -0.65554)
(-0.0191517 0.0134043 -0.079107 -0.0212127 0.0339504 -0.609109)
(-0.00571246 0.0274263 -0.129372 -0.0709786 0.126581 -0.600148)
(0.0103385 0.0139366 -0.117793 -0.124218 0.219006 -0.596444)
(0.0144571 -0.00795955 -0.0703027 -0.124639 0.273604 -0.608394)
(0.0119896 -0.0153321 -0.0303896 -0.111558 0.252785 -0.589888)
(0.0185561 -0.014363 0.00252868 -0.065214 0.195838 -0.623938)
(0.0451244 -0.00988108 0.0857726 -0.0617622 0.141119 -0.579206)
(0.0918394 -0.00878702 0.291136 -0.0800179 0.103513 -0.488108)
(0.171296 -0.0134427 0.676522 -0.0773967 0.0656166 -0.460681)
(0.353805 -0.011417 0.671666 -0.119721 0.114579 -1.48339)
(0.1242 0.0201681 -0.196594 -0.150438 0.372768 -0.810712)
(0.0505603 0.00549239 -0.212218 -0.135175 0.230393 -0.515874)
(0.0338134 -0.0194429 -0.107254 -0.120097 0.209795 -0.588841)
(0.0219846 -0.0261225 0.00184155 -0.0517768 0.118592 -0.677923)
(0.00375239 -0.0139205 0.0405924 -0.028601 0.0463511 -0.651899)
(-0.00317332 0.00463471 0.0291507 -0.0389746 0.0152758 -0.623032)
(0.00133267 0.0214722 0.0226049 -0.0744075 0.0530034 -0.601868)
(0.0078222 0.0159948 0.035718 -0.0928974 0.124072 -0.611814)
(0.00961489 -0.00309875 0.0651588 -0.0900619 0.161868 -0.630576)
(0.00275094 -0.0147191 0.0924022 -0.0591864 0.123052 -0.645663)
(-0.00906065 -0.0142729 0.0836463 0.00400798 0.0565987 -0.688051)
(-0.014459 -0.00455573 0.0380688 -0.000264424 0.0124868 -0.644106)
(-0.0084634 0.00762545 -0.00621089 -0.01544 0.0168106 -0.644501)
(-0.00116962 0.00850574 -0.0154305 -0.0406752 0.0634924 -0.638054)
(-0.000736987 0.00434716 -0.0138569 -0.0380967 0.0807391 -0.645659)
(-0.000791311 0.00694772 -0.0203499 -0.041928 0.0958353 -0.647699)
(0.00327791 0.00349533 -0.0203484 -0.0544618 0.117191 -0.651321)
(0.00456977 -0.00467626 -0.00130141 -0.035797 0.110536 -0.686654)
(-0.00269959 -0.0116874 0.00836045 -0.0292311 0.0835798 -0.665847)
(-0.0134918 -0.00978219 -0.0177572 0.0143909 0.0363794 -0.692984)
(-0.0160119 0.00654027 -0.0739478 -0.0110873 0.027481 -0.63738)
(-0.00598349 0.0191873 -0.116335 -0.0564998 0.0868587 -0.619101)
(0.00670615 0.0113496 -0.114239 -0.097768 0.151961 -0.608781)
(0.0124277 -0.00505073 -0.0799419 -0.104959 0.199653 -0.62839)
(0.0124701 -0.0108245 -0.0397517 -0.093393 0.181431 -0.623977)
(0.0191225 -0.0114947 -0.00392056 -0.0650921 0.15549 -0.624877)
(0.0451512 -0.0124616 0.0776887 -0.0511069 0.104795 -0.607474)
(0.0901243 -0.0122355 0.281806 -0.0549642 0.06092 -0.535646)
(0.168198 -0.0143955 0.660992 -0.0613248 0.0252654 -0.481392)
(0.353532 -0.00632715 0.652107 -0.106374 0.0298346 -1.50198)
(0.103153 0.0175224 -0.155905 -0.132376 0.282577 -0.773576)
(0.0375414 0.00461444 -0.187178 -0.101248 0.161815 -0.526119)
(0.027954 -0.012299 -0.113424 -0.091898 0.145884 -0.613601)
(0.0220377 -0.0212236 -0.0113488 -0.0470989 0.102109 -0.687361)
(0.00632259 -0.0157197 0.0317349 -0.0413763 0.0295022 -0.641112)
(0.000180435 0.000662195 0.0295606 -0.0397384 -0.00783958 -0.636392)
(0.00256143 0.0164791 0.0347335 -0.057063 0.0146702 -0.634782)
(0.00560448 0.0146053 0.0459181 -0.0760169 0.0756898 -0.61709)
(0.00722217 0.000663808 0.0651535 -0.0794894 0.108778 -0.631191)
(0.00194768 -0.00672998 0.0876188 -0.0543745 0.088733 -0.644706)
(-0.00869906 -0.0095247 0.0771905 -0.00752822 0.0659198 -0.664809)
(-0.0128973 -0.00554592 0.0340187 -0.000266769 0.0177344 -0.645835)
(-0.00726719 0.00448182 -0.00232115 -0.00890534 0.018553 -0.654965)
(-0.0013311 0.00582701 -0.0104237 -0.0345001 0.0428894 -0.640191)
(-0.00074163 0.00419566 -0.0107979 -0.0415399 0.0551443 -0.631128)
(-0.000748898 0.00646995 -0.0159542 -0.0443879 0.0682038 -0.633385)
(0.00226744 0.00553538 -0.0173858 -0.046265 0.0891475 -0.650477)
(0.00314832 -0.00277424 -0.00318358 -0.0286244 0.101936 -0.682978)
(-0.0034309 -0.00873209 0.00276649 -0.0265359 0.0706082 -0.657764)
(-0.0124477 -0.00862364 -0.0244989 0.00193979 0.0531025 -0.668245)
(-0.0136497 0.000309359 -0.0742831 -0.0115287 0.024804 -0.639358)
(-0.00562366 0.0119028 -0.108517 -0.0472639 0.0553512 -0.626071)
(0.00430868 0.00869143 -0.111144 -0.0789879 0.100913 -0.613013)
(0.010783 -0.00235124 -0.0862737 -0.0903418 0.138792 -0.635774)
(0.0126006 -0.00777327 -0.046885 -0.0756758 0.128984 -0.648722)
(0.0190924 -0.00890857 -0.00918011 -0.062453 0.108438 -0.625526)
(0.0445636 -0.0118326 0.0690063 -0.0460779 0.0767631 -0.615061)
(0.0890315 -0.014352 0.271083 -0.0439629 0.0376688 -0.556792)
(0.168438 -0.0147138 0.647299 -0.0503619 -0.00320652 -0.500678)
(0.363181 -0.00341538 0.648766 -0.0743972 -0.0302296 -1.57062)
(0.0850226 0.0129335 -0.127729 -0.116778 0.208241 -0.740962)
(0.0271166 0.00146265 -0.167894 -0.0753906 0.114764 -0.532116)
(0.0230458 -0.00966805 -0.116369 -0.0784226 0.0985518 -0.614214)
(0.0212324 -0.019188 -0.0246943 -0.0710122 0.0743527 -0.639475)
(0.00844219 -0.0158609 0.0198385 -0.0580473 -0.00336251 -0.618975)
(0.00337586 -0.00013829 0.0282279 -0.0437485 -0.0323324 -0.642039)
(0.00391885 0.0128366 0.0434019 -0.0480535 -0.0140096 -0.650404)
(0.00428085 0.0124006 0.0545373 -0.0660467 0.0367548 -0.617996)
(0.00566738 0.00303076 0.0675264 -0.0724545 0.062835 -0.628981)
(0.00116351 -0.00137872 0.0873776 -0.0543457 0.0560736 -0.635298)
(-0.00899428 -0.00499792 0.0737113 -0.0309837 0.0548906 -0.612591)
(-0.0119957 -0.00472709 0.030066 -0.009613 0.0183295 -0.627263)
(-0.00634531 0.00185321 -9.89998e-05 -0.0166013 0.0131343 -0.634398)
(-0.00127213 0.00316767 -0.00769111 -0.0359426 0.0241448 -0.629508)
(-0.000458869 0.00341123 -0.00829395 -0.0436153 0.0277868 -0.618696)
(-0.000423286 0.00638114 -0.0111102 -0.0454256 0.0393976 -0.621025)
(0.00137046 0.00688626 -0.0121557 -0.0468999 0.0635232 -0.634049)
(0.00160988 -0.00145935 -0.00420684 -0.0447427 0.0865174 -0.633698)
(-0.00420101 -0.00708355 -0.00203945 -0.0343396 0.0549072 -0.630126)
(-0.0120456 -0.00730923 -0.0305893 -0.0248262 0.0481637 -0.609886)
(-0.0120187 -0.0028829 -0.078334 -0.0199251 0.0183491 -0.623578)
(-0.00486233 0.0062956 -0.105065 -0.041674 0.0295995 -0.628007)
(0.00304083 0.00606113 -0.108768 -0.0669889 0.0603516 -0.613348)
(0.00954463 -3.77515e-05 -0.0892181 -0.0807393 0.0873801 -0.636605)
(0.0123823 -0.00458588 -0.052335 -0.066885 0.0887023 -0.654304)
(0.0188068 -0.00719444 -0.014312 -0.0510225 0.0710851 -0.642038)
(0.0435919 -0.0111231 0.0620799 -0.0447714 0.0480182 -0.610109)
(0.0883728 -0.014744 0.261017 -0.0497186 0.0130875 -0.542979)
(0.169898 -0.0128384 0.634548 -0.0467141 -0.0276363 -0.511728)
(0.373786 -0.00136859 0.659261 -0.0432524 -0.0617725 -1.64039)
(0.0714151 0.00633906 -0.111891 -0.106351 0.14327 -0.714807)
(0.0196623 -0.00404284 -0.157639 -0.0587197 0.0808249 -0.534055)
(0.0194948 -0.0128262 -0.120729 -0.074645 0.0537792 -0.604954)
(0.0205734 -0.0182088 -0.0386739 -0.0989106 0.0154085 -0.58478)
(0.0104752 -0.0123494 0.00878089 -0.0684207 -0.0450619 -0.616167)
(0.00614071 0.00105228 0.0274115 -0.0497332 -0.0591914 -0.646004)
(0.00508183 0.0102956 0.0500871 -0.0452733 -0.038022 -0.664245)
(0.00358876 0.00996566 0.061952 -0.0621987 0.00247567 -0.617867)
(0.00468649 0.00431499 0.0709647 -0.0690653 0.021593 -0.627322)
(0.000534463 0.00130697 0.0889464 -0.0556691 0.0229032 -0.627347)
(-0.00946812 -0.00122528 0.072941 -0.0471155 0.0243103 -0.578881)
(-0.0116862 -0.00238429 0.027515 -0.0192684 0.00826185 -0.606869)
(-0.0057692 -0.000148878 0.000922471 -0.0221999 -0.000454251 -0.624894)
(-0.00106251 0.00120631 -0.00594249 -0.0398792 0.000733211 -0.617096)
(-3.11292e-05 0.00294743 -0.00639231 -0.0440092 0.00108628 -0.612914)
(-3.14226e-05 0.00579901 -0.00634849 -0.0446194 0.0120295 -0.615317)
(0.000566933 0.00558913 -0.00672965 -0.0499362 0.0328336 -0.615426)
(0.000140593 -0.000768649 -0.00472755 -0.0624005 0.047188 -0.582262)
(-0.00489567 -0.00547985 -0.00656039 -0.0422876 0.0290811 -0.6037)
(-0.011844 -0.00576341 -0.0356768 -0.0446257 0.0192015 -0.567916)
(-0.0109948 -0.00282598 -0.0825772 -0.028969 0.00242479 -0.605413)
(-0.00412603 0.00260687 -0.104355 -0.0391486 0.00721018 -0.628376)
(0.00260985 0.00341904 -0.107321 -0.0607856 0.025822 -0.612889)
(0.00888108 0.00138343 -0.089778 -0.0758285 0.0413602 -0.635795)
(0.011875 -0.00064123 -0.0550405 -0.0646115 0.0496641 -0.649615)
(0.0180445 -0.00526368 -0.0191683 -0.0419734 0.0465264 -0.650454)
(0.0426345 -0.0122882 0.0540493 -0.0415179 0.0213337 -0.615776)
(0.088268 -0.0144431 0.250848 -0.0557137 -0.0233551 -0.536021)
(0.172298 -0.00934627 0.624649 -0.0490246 -0.055019 -0.519194)
(0.383289 0.000279097 0.6679 -0.0258023 -0.0743886 -1.68954)
(0.0639606 -0.00125666 -0.104436 -0.0998729 0.0835568 -0.700606)
(0.0155416 -0.0107154 -0.15812 -0.0504071 0.0540153 -0.53457)
(0.0176664 -0.0192193 -0.130596 -0.0710342 0.00904638 -0.605668)
(0.0211238 -0.0175975 -0.0505175 -0.102512 -0.0626631 -0.586551)
(0.0124974 -0.00689294 0.00209504 -0.0764026 -0.0892383 -0.619293)
(0.00808603 0.00294186 0.0280008 -0.0579946 -0.0900679 -0.649283)
(0.00586891 0.00843729 0.0554485 -0.0509061 -0.0603503 -0.665869)
(0.00331336 0.00745355 0.0673966 -0.0639589 -0.031122 -0.618398)
(0.00415564 0.00514074 0.0747372 -0.0697331 -0.0182191 -0.627454)
(0.000114097 0.00302214 0.0912409 -0.0563018 -0.010864 -0.626663)
(-0.00979451 0.00209285 0.0740356 -0.047868 -0.011974 -0.577455)
(-0.011862 0.000659898 0.0276749 -0.019817 -0.00796329 -0.605906)