/*--------------------------------*- C++ -*----------------------------------*\
| =========                 |                                                 |
| \\      /  F ield         | OpenFOAM: The Open Source CFD Toolbox           |
|  \\    /   O peration     | Version:  2106                                  |
|   \\  /    A nd           | Website:  www.openfoam.com                      |
|    \\/     M anipulation  |                                                 |
\*---------------------------------------------------------------------------*/
FoamFile
{
    version     2.0;
    format      ascii;
    arch        "LSB;label=32;scalar=64";
    class       volSymmTensorField;
    location    "387";
    object      sigma;
}
// * * * * * * * * * * * * * * * * * * * * * * * * * * * * * * * * * * * * * //

dimensions      [1 -1 -2 0 0 0 0];

internalField   nonuniform List<symmTensor> 
9000
(
(6.51937e+08 -2.23662e+07 4.78646e+07 3.50618e+08 5.03895e+08 3.18141e+09)
(2.14914e+09 3.93395e+06 -1.75481e+08 7.29736e+08 6.72405e+08 6.01725e+09)
(1.4607e+09 8.13102e+06 -5.09975e+08 4.80795e+08 5.71861e+08 3.83009e+09)
(8.59378e+08 -1.31805e+06 -4.13737e+08 2.79769e+08 3.15408e+08 1.79431e+09)
(4.25769e+08 -2.45267e+06 -1.27413e+08 1.33187e+08 1.52865e+08 4.57035e+08)
(3.98734e+08 -2.60843e+06 1.62419e+08 1.31201e+08 1.33602e+08 4.0094e+08)
(7.70216e+08 -7.33705e+06 4.11289e+08 2.56667e+08 2.78894e+08 1.74063e+09)
(1.54194e+09 935315 1.99869e+08 5.29554e+08 4.602e+08 4.22461e+09)
(1.09956e+09 1.6292e+07 -1.47729e+08 3.76487e+08 4.43696e+08 2.88512e+09)
(5.0051e+08 831357 -1.50623e+08 1.45996e+08 4.02754e+08 9.7196e+08)
(3.00685e+08 -1.45117e+07 -3.50701e+07 1.07274e+08 2.11704e+08 2.90927e+08)
(2.72806e+08 -3.974e+06 8.9099e+07 1.04933e+08 1.13238e+08 2.01711e+08)
(4.24337e+08 2.74629e+06 2.20095e+08 1.58512e+08 2.0745e+08 7.95723e+08)
(7.37178e+08 1.12337e+06 6.00389e+07 2.48194e+08 3.09417e+08 1.82155e+09)
(5.99618e+08 -8906.77 -5.79712e+07 2.05468e+08 2.86354e+08 1.24071e+09)
(6.54247e+08 -509273 1.36653e+08 2.18577e+08 2.99186e+08 1.36023e+09)
(9.51066e+08 1.9223e+06 8.54557e+07 3.10649e+08 3.82077e+08 2.41319e+09)
(8.05199e+08 6.92035e+06 -1.0428e+08 2.8016e+08 4.0051e+08 1.98156e+09)
(4.10415e+08 -3.88304e+06 -1.32191e+08 1.17971e+08 3.66802e+08 7.3466e+08)
(2.88425e+08 -1.55917e+07 -3.14675e+07 9.96795e+07 1.90109e+08 2.25249e+08)
(3.69921e+08 -8.12236e+06 1.665e+08 1.26374e+08 1.2402e+08 3.85711e+08)
(8.25378e+08 -8.19741e+06 4.00822e+08 2.80107e+08 2.86806e+08 1.93493e+09)
(1.68915e+09 1.27024e+06 1.30257e+08 5.83631e+08 5.003e+08 4.6701e+09)
(1.23601e+09 1.18844e+07 -2.35629e+08 4.21392e+08 4.72617e+08 3.27069e+09)
(9.54227e+08 4.447e+06 -2.31796e+08 3.23724e+08 4.14637e+08 2.23164e+09)
(7.26165e+08 -1.72249e+06 -1.62899e+08 2.44901e+08 3.25629e+08 1.46017e+09)
(6.37048e+08 -2.18268e+06 4.83314e+07 2.09906e+08 2.50012e+08 1.1075e+09)
(7.73413e+08 -1.78126e+06 3.11779e+08 2.4472e+08 2.95654e+08 1.56033e+09)
(8.59412e+08 -8.25527e+06 3.90881e+08 2.67191e+08 3.2676e+08 1.80955e+09)
(5.2744e+07 779662 2.88456e+08 1.15054e+07 8.21898e+07 -4.26022e+08)
(3.18005e+08 -5.86402e+07 -6.91464e+07 1.19551e+08 9.98488e+08 1.38606e+09)
(1.18543e+09 -85802.9 -1.93621e+08 4.20966e+08 1.17499e+09 3.08645e+09)
(8.35753e+08 4.76357e+07 -3.1249e+08 2.85089e+08 1.09375e+09 1.97626e+09)
(4.77043e+08 1.91235e+07 -2.34822e+08 1.78444e+08 6.25154e+08 7.5774e+08)
(2.34158e+08 2.79901e+06 -6.00335e+07 9.59648e+07 3.24344e+08 1.58573e+07)
(2.00197e+08 -1.49492e+07 9.67393e+07 8.71679e+07 2.85772e+08 -5.60721e+07)
(4.11143e+08 -4.38025e+07 2.31701e+08 1.44624e+08 5.36228e+08 7.31205e+08)
(8.24773e+08 -5.28043e+06 1.28933e+08 2.97863e+08 7.9271e+08 2.081e+09)
(5.9851e+08 5.85431e+07 -3.68599e+07 2.10803e+08 8.56415e+08 1.39572e+09)
(3.13469e+08 1.83357e+07 -4.3525e+07 6.53563e+07 8.78106e+08 4.89101e+08)
(1.46441e+08 -2.83352e+07 1.43966e+07 5.03846e+07 4.76794e+08 -7.03921e+07)
(1.12666e+08 -1.36377e+07 7.28444e+07 5.95157e+07 2.5419e+08 -1.87914e+08)
(2.24992e+08 -7.6637e+06 1.44893e+08 9.84669e+07 4.31874e+08 2.39914e+08)
(4.62915e+08 -251179 3.15376e+07 1.90226e+08 6.008e+08 9.83544e+08)
(3.22137e+08 5.55223e+06 -4.82734e+07 1.10808e+08 5.8607e+08 4.77033e+08)
(3.53379e+08 -1.18944e+07 8.7214e+07 1.17234e+08 6.07451e+08 5.40674e+08)
(5.85081e+08 572433 5.05336e+07 2.21304e+08 7.31754e+08 1.31146e+09)
(4.51985e+08 2.76692e+07 -5.64858e+07 1.55682e+08 8.1041e+08 9.46994e+08)
(2.70091e+08 1.11289e+06 -5.74288e+07 5.14707e+07 8.05651e+08 3.70419e+08)
(1.46239e+08 -3.40551e+07 -5.172e+06 5.24833e+07 4.27781e+08 -9.30821e+07)
(1.70679e+08 -3.16787e+07 8.65006e+07 7.79617e+07 2.66495e+08 -7.73392e+07)
(4.32593e+08 -4.894e+07 1.94923e+08 1.60976e+08 5.47672e+08 8.24088e+08)
(8.95481e+08 -5.6628e+06 5.24667e+07 3.28394e+08 8.61549e+08 2.30749e+09)
(6.68123e+08 4.57126e+07 -1.38978e+08 2.40747e+08 9.03698e+08 1.59529e+09)
(5.23445e+08 2.34067e+07 -1.46033e+08 1.91696e+08 8.33734e+08 1.02941e+09)
(3.96063e+08 3.65085e+06 -9.94671e+07 1.45024e+08 6.70529e+08 5.71748e+08)
(3.48056e+08 -7.30122e+06 5.01189e+07 1.28752e+08 5.15284e+08 3.31294e+08)
(4.68455e+08 -1.19797e+07 2.71166e+08 1.58804e+08 5.81947e+08 6.58379e+08)
(5.48487e+08 -5.74079e+06 4.56145e+08 1.67531e+08 6.28766e+08 8.16446e+08)
(-6.35046e+07 1.67147e+07 3.91513e+08 -1.75289e+08 2.01233e+08 -9.97273e+08)
(1.94864e+08 -5.71903e+07 -1.60883e+08 6.8802e+07 1.12401e+09 5.45267e+08)
(7.39165e+08 -3.14099e+06 -2.06716e+08 3.61185e+08 1.2681e+09 1.54455e+09)
(6.05596e+08 4.59679e+07 -1.71886e+08 2.88464e+08 1.19601e+09 1.17467e+09)
(3.39109e+08 1.55296e+07 -1.15173e+08 1.9524e+08 7.30485e+08 3.64681e+08)
(1.78043e+08 -510333 -1.96309e+07 1.21896e+08 4.01681e+08 -8.37986e+07)
(1.38737e+08 -1.49343e+07 4.87643e+07 1.05412e+08 3.71656e+08 -1.64572e+08)
(2.74122e+08 -4.40332e+07 1.0132e+08 1.42861e+08 6.13275e+08 3.03843e+08)
(4.81767e+08 -3.99404e+06 7.92447e+07 2.45022e+08 8.6121e+08 9.39107e+08)
(4.16026e+08 5.32149e+07 4.52235e+07 2.05883e+08 9.54484e+08 7.57813e+08)
(3.29517e+08 1.33627e+07 2.42351e+07 1.00853e+08 9.27028e+08 5.369e+08)
(1.50183e+08 -2.77587e+07 3.1661e+07 7.21909e+07 5.54559e+08 -2.62074e+07)
(8.09245e+07 -1.59186e+07 5.5618e+07 7.10604e+07 3.38365e+08 -2.52487e+08)
(1.89159e+08 -1.34128e+07 8.8855e+07 1.13199e+08 5.00926e+08 1.14747e+08)
(3.7172e+08 850797 1.41975e+07 2.0893e+08 6.46709e+08 6.44269e+08)
(2.5766e+08 1.04804e+07 -3.41523e+07 1.2478e+08 6.60838e+08 2.72297e+08)
(2.75368e+08 -1.60378e+07 4.48494e+07 1.29953e+08 6.84101e+08 3.01427e+08)
(4.50286e+08 15173.6 2.77873e+07 2.3521e+08 7.85838e+08 8.31425e+08)
(3.75925e+08 2.57084e+07 -1.89143e+07 1.70275e+08 8.86009e+08 6.54614e+08)
(3.10141e+08 -2.54521e+06 -1.7609e+07 8.69476e+07 8.42346e+08 4.80181e+08)
(1.48352e+08 -3.28322e+07 -6.16708e+06 7.45335e+07 4.99563e+08 -4.1685e+07)
(1.0669e+08 -3.18255e+07 2.02014e+07 8.9232e+07 3.5408e+08 -2.00646e+08)
(2.74457e+08 -4.89699e+07 4.53928e+07 1.56686e+08 6.3635e+08 3.25597e+08)
(5.13588e+08 -3.65142e+06 -13333 2.6934e+08 9.40285e+08 1.045e+09)
(4.45905e+08 4.75583e+07 -6.04929e+07 2.34216e+08 1.01506e+09 8.36088e+08)
(3.92133e+08 2.3107e+07 -8.02473e+07 2.08076e+08 9.41105e+08 6.19985e+08)
(3.11006e+08 3.87105e+06 -5.70256e+07 1.6524e+08 7.70983e+08 3.27139e+08)
(2.68949e+08 -9.70577e+06 4.60145e+07 1.48709e+08 6.20984e+08 1.0631e+08)
(3.83744e+08 -1.85828e+07 2.34549e+08 1.81273e+08 6.60277e+08 3.461e+08)
(4.64161e+08 -8.2153e+06 4.93493e+08 1.78779e+08 6.7155e+08 4.35339e+08)
(-1.0659e+08 1.72163e+07 4.72748e+08 -2.63028e+08 2.76217e+08 -1.26993e+09)
(1.24372e+08 -4.05848e+07 -2.2173e+08 -4.53304e+07 1.07526e+09 1.08994e+08)
(4.44786e+08 -4.7927e+06 -2.15905e+08 1.65069e+08 1.18077e+09 6.66173e+08)
(4.57762e+08 2.77669e+07 -8.01735e+07 1.84265e+08 1.10759e+09 7.57089e+08)
(2.76268e+08 5.51559e+06 -3.48723e+07 1.476e+08 7.22314e+08 2.57773e+08)
(1.66126e+08 -4.64161e+06 7.0495e+06 1.10994e+08 4.17511e+08 -3.34537e+07)
(1.37175e+08 -1.03276e+07 1.56581e+07 9.3486e+07 3.96359e+08 -8.12239e+07)
(2.05436e+08 -2.88997e+07 1.3206e+07 8.79562e+07 5.92877e+08 1.43747e+08)
(2.56514e+08 -360331 4.52244e+07 9.41125e+07 8.07721e+08 2.97363e+08)
(3.11311e+08 2.92297e+07 8.92358e+07 1.19235e+08 8.98563e+08 4.64714e+08)
(3.14694e+08 2.42477e+06 6.70047e+07 7.75177e+07 7.96052e+08 5.3405e+08)
(1.80544e+08 -1.87641e+07 4.84515e+07 6.51577e+07 5.21051e+08 1.15254e+08)
(1.06398e+08 -1.37517e+07 4.17003e+07 6.11798e+07 3.57619e+08 -1.2401e+08)
(1.9136e+08 -1.50332e+07 4.24862e+07 9.12386e+07 4.75085e+08 1.43113e+08)
(2.99794e+08 2.40642e+06 2.2615e+06 1.5491e+08 5.81524e+08 4.40287e+08)
(2.31772e+08 1.26765e+07 -1.9655e+07 9.04615e+07 6.18771e+08 2.368e+08)
(2.39602e+08 -1.51484e+07 1.0153e+07 9.1841e+07 6.42413e+08 2.44422e+08)
(3.45099e+08 -1.72135e+06 1.00751e+07 1.63589e+08 7.11181e+08 5.39224e+08)
(3.29761e+08 1.44127e+07 3.18518e+06 1.16449e+08 7.94335e+08 5.35157e+08)
(3.10208e+08 -5.66209e+06 6.49859e+06 6.99143e+07 7.06702e+08 5.11375e+08)
(1.76459e+08 -2.06818e+07 -3.67593e+06 6.91487e+07 4.69368e+08 1.01107e+08)
(1.09173e+08 -2.05881e+07 -2.71171e+07 7.36379e+07 3.80531e+08 -1.10131e+08)
(1.97615e+08 -3.15152e+07 -5.58317e+07 9.42129e+07 6.28549e+08 1.40285e+08)
(2.65381e+08 666573 -3.56811e+07 1.02643e+08 8.87381e+08 3.37939e+08)
(3.18982e+08 3.32804e+07 -9.16608e+06 1.36957e+08 9.71775e+08 4.8168e+08)
(3.24708e+08 1.41723e+07 -3.32112e+07 1.47676e+08 8.89973e+08 4.81588e+08)
(2.83653e+08 2.29769e+06 -2.58828e+07 1.2874e+08 7.37543e+08 3.11041e+08)
(2.62765e+08 -9.25561e+06 4.15156e+07 1.24552e+08 6.20042e+08 1.47636e+08)
(3.55582e+08 -1.95236e+07 2.04483e+08 1.50025e+08 6.26929e+08 2.72611e+08)
(4.18025e+08 -1.05885e+07 5.15757e+08 1.34511e+08 5.95165e+08 2.52792e+08)
(-1.19475e+08 1.12066e+07 5.30137e+08 -3.36796e+08 3.08621e+08 -1.3679e+09)
(7.07881e+07 -2.14948e+07 -2.52303e+08 -1.62138e+08 9.52807e+08 -1.66952e+08)
(2.5997e+08 -4.64429e+06 -2.20889e+08 -2.12451e+07 1.02999e+09 1.79504e+08)
(3.41682e+08 6.00348e+06 -3.02511e+07 6.28362e+07 9.46675e+08 4.75474e+08)
(2.35893e+08 -4.99907e+06 1.62641e+07 8.1122e+07 6.428e+08 2.22929e+08)
(1.6562e+08 -8.0886e+06 2.47602e+07 8.21879e+07 3.82959e+08 4.56794e+07)
(1.47512e+08 -4.78117e+06 -5.06696e+06 6.60685e+07 3.57914e+08 2.81391e+07)
(1.59514e+08 -8.97358e+06 -3.72049e+07 2.29762e+07 5.14539e+08 6.55516e+07)
(1.16332e+08 3.56646e+06 2.38308e+07 -4.91876e+07 7.04685e+08 -4.81238e+07)
(2.34028e+08 6.20553e+06 1.02984e+08 2.09737e+07 7.70823e+08 2.87736e+08)
(2.58305e+08 -7.84378e+06 9.14181e+07 3.52704e+07 6.31279e+08 4.03568e+08)
(1.89769e+08 -1.2554e+07 6.60843e+07 4.60345e+07 4.24591e+08 1.88341e+08)
(1.31136e+08 -1.00573e+07 3.21485e+07 3.84115e+07 3.08858e+08 8.52194e+06)
(1.84587e+08 -1.09757e+07 7.74335e+06 5.73921e+07 3.89942e+08 1.54813e+08)
(2.28409e+08 4.2229e+06 -5.4793e+06 8.15678e+07 4.78492e+08 2.63345e+08)
(2.06773e+08 1.13108e+07 -8.76057e+06 4.46458e+07 5.19686e+08 2.14012e+08)
(2.08009e+08 -1.03602e+07 -1.4391e+07 4.20026e+07 5.4334e+08 2.1019e+08)
(2.4918e+08 -2.59238e+06 -4.51449e+06 7.22705e+07 5.95021e+08 3.07534e+08)
(2.68499e+08 3.58641e+06 1.26737e+07 4.7272e+07 6.46193e+08 3.92048e+08)
(2.60134e+08 -8.35313e+06 2.18568e+07 3.5745e+07 5.41006e+08 3.93566e+08)
(1.84478e+08 -1.07842e+07 3.9484e+06 5.13022e+07 3.78625e+08 1.76158e+08)
(1.22347e+08 -7.201e+06 -5.5276e+07 4.28293e+07 3.3866e+08 7.85144e+06)
(1.54384e+08 -8.70377e+06 -1.14383e+08 2.08137e+07 5.5452e+08 7.4847e+07)
(1.14217e+08 4.95353e+06 -5.90844e+07 -5.54918e+07 7.7949e+08 -3.69015e+07)
(2.33177e+08 1.43757e+07 1.44589e+07 2.57767e+07 8.50705e+08 2.87442e+08)
(2.67215e+08 3.04998e+06 -4.43817e+06 6.78394e+07 7.6346e+08 3.84667e+08)
(2.58023e+08 -1.02108e+06 -4.09093e+06 7.58493e+07 6.28916e+08 3.04829e+08)
(2.6358e+08 -6.61066e+06 3.95691e+07 8.29806e+07 5.36728e+08 2.18128e+08)
(3.3558e+08 -1.3881e+07 1.86229e+08 1.05845e+08 5.32344e+08 2.46204e+08)
(3.84125e+08 -1.22307e+07 5.26221e+08 8.96371e+07 4.81463e+08 1.41322e+08)
(-1.25162e+08 2.09484e+06 5.58061e+08 -3.9427e+08 3.00665e+08 -1.40392e+09)
(2.13241e+07 -5.98507e+06 -2.59582e+08 -2.4989e+08 8.06053e+08 -3.93011e+08)
(1.48899e+08 -3.23531e+06 -2.21364e+08 -1.4507e+08 8.58945e+08 -8.78441e+07)
(2.3494e+08 -1.16268e+07 -1.18521e+07 -3.76234e+07 7.68761e+08 2.19967e+08)
(1.86816e+08 -1.45823e+07 4.4969e+07 1.92583e+07 5.29332e+08 1.41221e+08)
(1.5475e+08 -1.1061e+07 3.5166e+07 4.75199e+07 3.1037e+08 7.64916e+07)
(1.37258e+08 1.14283e+06 -1.58572e+07 3.5189e+07 2.79267e+08 5.28921e+07)
(1.0942e+08 8.83976e+06 -5.7161e+07 -3.13504e+07 4.12603e+08 -3.56331e+07)
(3.17099e+07 6.4775e+06 1.22121e+07 -1.45686e+08 5.81628e+08 -2.3555e+08)
(1.58129e+08 -8.43783e+06 9.89531e+07 -5.89619e+07 6.18182e+08 1.12214e+08)
(1.79406e+08 -1.4793e+07 1.01839e+08 -1.22539e+07 4.83258e+08 1.98152e+08)
(1.57707e+08 -1.19519e+07 7.86014e+07 1.88451e+07 3.13593e+08 1.28651e+08)
(1.27635e+08 -6.40238e+06 2.62731e+07 1.81439e+07 2.21406e+08 4.04114e+07)
(1.43757e+08 -3.53144e+06 -1.33529e+07 2.03924e+07 2.89907e+08 6.32011e+07)
(1.54599e+08 4.95331e+06 -9.48096e+06 1.44027e+07 3.70402e+08 8.18443e+07)
(1.62645e+08 7.71071e+06 -3.16788e+06 -2.91766e+06 4.00064e+08 1.30138e+08)
(1.60055e+08 -3.89814e+06 -2.82328e+07 -8.7507e+06 4.23155e+08 1.21492e+08)
(1.59211e+08 -1.68944e+06 -1.47787e+07 -8.29299e+06 4.72742e+08 9.43506e+07)
(1.9331e+08 -3.20355e+06 1.47232e+07 -1.16483e+07 4.94606e+08 2.02746e+08)
(1.8204e+08 -1.05199e+07 2.96083e+07 -4.5441e+06 3.96685e+08 1.89029e+08)
(1.52268e+08 -7.3602e+06 1.04259e+07 2.48207e+07 2.73441e+08 1.1918e+08)
(1.1602e+08 2.74554e+06 -6.82398e+07 1.52136e+07 2.53379e+08 4.08048e+07)
(1.11658e+08 1.13504e+07 -1.39132e+08 -3.92289e+07 4.4404e+08 1.39925e+06)
(2.57391e+07 8.31938e+06 -7.33914e+07 -1.61668e+08 6.47547e+08 -2.33626e+08)
(1.55577e+08 -1.45941e+06 1.6209e+07 -6.46118e+07 6.96514e+08 1.13948e+08)
(1.95609e+08 -5.98594e+06 8.56484e+06 -5.1232e+06 6.12434e+08 2.28917e+08)
(2.03768e+08 -4.99999e+06 8.68669e+06 2.13362e+07 4.96991e+08 1.99002e+08)
(2.34699e+08 -3.65777e+06 4.11121e+07 4.28745e+07 4.15796e+08 1.82338e+08)
(2.98407e+08 -5.78934e+06 1.80929e+08 6.79353e+07 4.16432e+08 1.68394e+08)
(3.51337e+08 -1.313e+07 5.26143e+08 6.14696e+07 3.66212e+08 5.00061e+07)
(-1.36639e+08 -6.56559e+06 5.58514e+08 -4.34585e+08 2.70098e+08 -1.44777e+09)
(-2.51409e+07 4.18909e+06 -2.52036e+08 -3.02497e+08 6.67755e+08 -5.98788e+08)
(8.46938e+07 -1.26776e+06 -2.16986e+08 -2.04829e+08 6.91081e+08 -2.3586e+08)
(1.38026e+08 -2.18894e+07 -1.28656e+07 -1.06788e+08 6.07158e+08 -2.06211e+07)
(1.28366e+08 -2.28595e+07 5.57321e+07 -3.03383e+07 4.16767e+08 8.06109e+06)
(1.24436e+08 -1.35156e+07 3.93444e+07 1.5438e+07 2.20015e+08 2.56302e+07)
(1.02125e+08 7.46421e+06 -1.79821e+07 6.86453e+06 1.94219e+08 -2.09576e+07)
(5.46528e+07 2.07754e+07 -5.62522e+07 -6.97656e+07 3.18466e+08 -1.65948e+08)
(-1.87406e+07 7.83953e+06 7.28912e+06 -1.93739e+08 4.583e+08 -3.43788e+08)
(8.2359e+07 -1.48788e+07 8.72567e+07 -1.13016e+08 4.74779e+08 -7.77973e+07)
(9.96145e+07 -1.82984e+07 1.03323e+08 -5.56702e+07 3.61829e+08 -1.66939e+07)
(1.0796e+08 -1.3968e+07 8.28761e+07 -7.43199e+06 2.19344e+08 4.39149e+06)
(9.0171e+07 -3.07383e+06 2.32511e+07 -1.52615e+06 1.35643e+08 -4.58161e+07)
(8.95823e+07 3.54773e+06 -2.17957e+07 -1.02309e+07 2.08765e+08 -7.57982e+07)
(8.46473e+07 3.57734e+06 -1.16044e+07 -3.70062e+07 2.74302e+08 -9.39202e+07)
(1.09246e+08 3.52458e+06 -1.89701e+06 -3.92515e+07 2.83253e+08 2.24607e+06)
(1.04889e+08 2.30234e+06 -3.35682e+07 -4.70437e+07 3.05028e+08 -6.98356e+06)
(7.9605e+07 770564 -2.09329e+07 -6.75407e+07 3.61888e+08 -9.97831e+07)
(1.10026e+08 -6.34637e+06 1.33042e+07 -5.94269e+07 3.64776e+08 -1.67427e+07)
(1.00962e+08 -1.18756e+07 3.22473e+07 -4.29681e+07 2.83114e+08 -2.74589e+07)
(1.03019e+08 -7.90287e+06 1.16567e+07 -1.07876e+06 1.84541e+08 -1.8759e+06)
(7.93962e+07 8.12463e+06 -7.23292e+07 -9.31299e+06 1.64491e+08 -4.18077e+07)
(6.16582e+07 2.42478e+07 -1.40613e+08 -7.89143e+07 3.31116e+08 -1.13193e+08)
(-2.52575e+07 1.05403e+07 -8.10466e+07 -2.13765e+08 5.12887e+08 -3.42529e+08)
(7.97965e+07 -1.06588e+07 4.84272e+06 -1.2512e+08 5.45988e+08 -7.17896e+07)
(1.13817e+08 -1.1447e+07 1.09745e+07 -6.17657e+07 4.74135e+08 2.07009e+07)
(1.37548e+08 -8.33049e+06 1.45214e+07 -2.274e+07 3.7928e+08 3.67296e+07)
(1.79135e+08 -1.59155e+06 4.48719e+07 9.93995e+06 3.03914e+08 4.58284e+07)
(2.47263e+08 8424.5 1.84827e+08 4.08766e+07 3.1275e+08 4.27273e+07)
(3.18523e+08 -1.31963e+07 5.17467e+08 5.01573e+07 2.66737e+08 -3.17063e+07)
(-1.52811e+08 -1.2657e+07 5.41488e+08 -4.60019e+08 2.37987e+08 -1.4999e+09)
(-6.22823e+07 9.98916e+06 -2.36621e+08 -3.25332e+08 5.5744e+08 -7.58861e+08)
(4.96613e+07 455932 -2.07784e+08 -2.17754e+08 5.40683e+08 -3.15767e+08)
(6.07187e+07 -2.55415e+07 -2.30763e+07 -1.47664e+08 4.75786e+08 -2.15964e+08)
(7.46841e+07 -2.8474e+07 5.21678e+07 -6.78305e+07 3.19264e+08 -1.26886e+08)
(7.31767e+07 -1.45254e+07 3.8833e+07 -1.46739e+07 1.39167e+08 -1.07032e+08)
(5.47095e+07 1.25132e+07 -1.22789e+07 -1.81208e+07 1.25365e+08 -1.48598e+08)
(8.84193e+06 2.61039e+07 -4.38681e+07 -9.45738e+07 2.44141e+08 -2.7995e+08)
(-4.80544e+07 8.17622e+06 6.22508e+06 -2.06361e+08 3.47919e+08 -4.10188e+08)
(1.62098e+07 -1.57146e+07 7.37202e+07 -1.44309e+08 3.58057e+08 -2.53241e+08)
(2.96733e+07 -2.01657e+07 9.93402e+07 -9.05963e+07 2.67476e+08 -2.08011e+08)
(6.02409e+07 -1.53863e+07 8.10566e+07 -2.99894e+07 1.41269e+08 -1.23133e+08)
(4.16853e+07 -168440 2.27354e+07 -1.79821e+07 7.50493e+07 -1.78714e+08)
(4.38843e+07 7.78123e+06 -2.19256e+07 -3.41052e+07 1.465e+08 -1.93531e+08)
(2.61169e+07 1.62024e+06 -1.42408e+07 -7.14407e+07 1.96624e+08 -2.43721e+08)
(4.84652e+07 119980 -4.06552e+06 -6.58774e+07 1.84231e+08 -1.62447e+08)
(4.36154e+07 6.95295e+06 -3.23273e+07 -7.45099e+07 2.03874e+08 -1.70197e+08)
(1.58727e+07 4.03809e+06 -2.23735e+07 -1.04943e+08 2.70289e+08 -2.60629e+08)
(3.57589e+07 -7.23506e+06 1.02862e+07 -9.51727e+07 2.68654e+08 -2.14327e+08)
(2.99883e+07 -1.36009e+07 3.10137e+07 -7.51377e+07 1.98616e+08 -2.17689e+08)
(5.60149e+07 -8.8531e+06 8.7207e+06 -2.34293e+07 1.11096e+08 -1.26333e+08)
(3.18664e+07 1.10556e+07 -7.16102e+07 -2.7815e+07 9.87473e+07 -1.76208e+08)
(1.20607e+07 2.91711e+07 -1.29736e+08 -1.01154e+08 2.37821e+08 -2.43322e+08)
(-5.40178e+07 1.16324e+07 -8.40327e+07 -2.25961e+08 3.90851e+08 -4.081e+08)
(1.3488e+07 -1.32512e+07 -1.13999e+07 -1.59707e+08 4.20094e+08 -2.45665e+08)
(3.79011e+07 -1.44109e+07 6.93612e+06 -1.01905e+08 3.66387e+08 -1.86394e+08)
(7.65718e+07 -1.05209e+07 1.5652e+07 -5.48651e+07 2.81627e+08 -1.26438e+08)
(1.20534e+08 -146183 5.01188e+07 -1.36568e+07 2.19541e+08 -1.15493e+08)
(1.99515e+08 1.76986e+06 1.92345e+08 2.26312e+07 2.33363e+08 -7.71325e+07)
(2.89144e+08 -1.23884e+07 5.03152e+08 5.03402e+07 1.88433e+08 -9.7191e+07)
(-1.66035e+08 -1.5666e+07 5.1897e+08 -4.75404e+08 2.10888e+08 -1.52423e+09)
(-8.29657e+07 1.30636e+07 -2.16913e+08 -3.2672e+08 4.73316e+08 -8.3484e+08)
(3.23703e+07 1.66973e+06 -1.94745e+08 -2.0279e+08 4.12956e+08 -3.53254e+08)
(1.01075e+07 -2.53087e+07 -3.65242e+07 -1.66703e+08 3.71658e+08 -3.41572e+08)
(3.31735e+07 -3.01508e+07 3.98294e+07 -9.29878e+07 2.32195e+08 -2.37759e+08)
(2.0147e+07 -1.32654e+07 3.57383e+07 -3.81241e+07 8.45591e+07 -2.60663e+08)
(9.81192e+06 1.40379e+07 -1.97701e+06 -3.98196e+07 7.81861e+07 -2.77612e+08)
(-1.92479e+07 2.61506e+07 -2.71749e+07 -1.08165e+08 1.82009e+08 -3.48923e+08)
(-6.36465e+07 8.64704e+06 7.51437e+06 -1.97953e+08 2.56134e+08 -4.50759e+08)
(-3.2184e+07 -1.33504e+07 6.16428e+07 -1.58393e+08 2.69824e+08 -3.85328e+08)
(-2.17525e+07 -2.10612e+07 9.1056e+07 -1.11886e+08 1.97908e+08 -3.52516e+08)
(1.21421e+07 -1.54848e+07 7.59419e+07 -4.90633e+07 7.79902e+07 -2.59615e+08)
(-706518 1.53576e+06 2.43534e+07 -3.23227e+07 3.81261e+07 -3.00205e+08)
(7.62557e+06 9.2157e+06 -1.80676e+07 -5.34057e+07 9.37826e+07 -2.85427e+08)
(-1.69946e+07 1.66065e+06 -1.69359e+07 -9.07805e+07 1.37198e+08 -3.56421e+08)
(-1.09862e+07 -980178 -7.9174e+06 -8.34872e+07 1.18739e+08 -3.34274e+08)
(-1.57123e+07 8.71568e+06 -2.70883e+07 -9.21392e+07 1.35747e+08 -3.4053e+08)
(-2.92924e+07 5.49521e+06 -1.95897e+07 -1.23749e+08 1.98681e+08 -3.78935e+08)
(-1.25434e+07 -6.88091e+06 6.88473e+06 -1.14559e+08 1.95716e+08 -3.42022e+08)
(-2.17142e+07 -1.49446e+07 2.54792e+07 -9.48803e+07 1.38574e+08 -3.59105e+08)
(8.53331e+06 -8.96709e+06 3.71122e+06 -4.23799e+07 5.18419e+07 -2.61094e+08)
(-1.00141e+07 1.27428e+07 -6.70807e+07 -4.24513e+07 5.78755e+07 -3.0251e+08)
(-2.76072e+07 2.8228e+07 -1.14631e+08 -1.11244e+08 1.69397e+08 -3.54107e+08)
(-6.8909e+07 1.16971e+07 -8.39824e+07 -2.14407e+08 2.89136e+08 -4.4923e+08)
(-3.5159e+07 -1.1452e+07 -2.68462e+07 -1.75369e+08 3.22311e+08 -3.77921e+08)
(-1.79597e+07 -1.53917e+07 -1.518e+06 -1.28179e+08 2.88142e+08 -3.42798e+08)
(2.03316e+07 -1.15029e+07 1.26372e+07 -7.87581e+07 2.06e+08 -2.86276e+08)
(6.81783e+07 -253788 5.57162e+07 -3.46154e+07 1.62748e+08 -2.62181e+08)
(1.66129e+08 335699 1.99047e+08 1.17749e+07 1.69858e+08 -1.57824e+08)
(2.66405e+08 -1.09151e+07 4.86744e+08 5.66028e+07 1.28167e+08 -1.40974e+08)
(-1.71013e+08 -1.49028e+07 4.97162e+08 -4.84454e+08 1.7956e+08 -1.49955e+09)
(-8.68962e+07 1.4588e+07 -1.93114e+08 -3.14049e+08 3.99873e+08 -8.23237e+08)
(2.48757e+07 2.62748e+06 -1.79102e+08 -1.7407e+08 3.0725e+08 -3.64781e+08)
(-1.54049e+07 -2.29189e+07 -5.09359e+07 -1.68741e+08 2.83816e+08 -4.0123e+08)
(-5.30668e+06 -2.79603e+07 2.49571e+07 -1.08457e+08 1.56312e+08 -3.49371e+08)
(-2.15716e+07 -1.07116e+07 3.28227e+07 -5.62661e+07 5.39826e+07 -3.87472e+08)
(-2.42486e+07 1.18455e+07 8.52496e+06 -5.77681e+07 4.77165e+07 -3.77825e+08)
(-3.66461e+07 2.30465e+07 -1.04677e+07 -1.14777e+08 1.24829e+08 -3.92701e+08)
(-7.01751e+07 9.69648e+06 1.12274e+07 -1.7935e+08 1.83205e+08 -4.73798e+08)
(-6.09794e+07 -9.5789e+06 5.25124e+07 -1.60228e+08 2.03651e+08 -4.65046e+08)
(-5.40025e+07 -1.97552e+07 8.01626e+07 -1.21054e+08 1.47538e+08 -4.46458e+08)
(-3.46227e+07 -1.44616e+07 6.94054e+07 -6.20114e+07 4.05296e+07 -4.00132e+08)
(-3.19441e+07 1.06616e+06 2.67037e+07 -4.31856e+07 1.72837e+07 -3.93001e+08)
(-2.1398e+07 8.79381e+06 -1.29694e+07 -6.42975e+07 5.0024e+07 -3.64057e+08)
(-4.47766e+07 3.81888e+06 -1.74061e+07 -9.80113e+07 9.36108e+07 -4.32374e+08)
(-5.08634e+07 211895 -1.06584e+07 -9.13369e+07 8.60361e+07 -4.54122e+08)
(-5.52537e+07 7.75674e+06 -2.13375e+07 -9.94248e+07 1.0041e+08 -4.59531e+08)
(-5.72811e+07 4.11678e+06 -1.62516e+07 -1.28426e+08 1.44749e+08 -4.56891e+08)
(-4.51776e+07 -5.90764e+06 3.72323e+06 -1.223e+08 1.34995e+08 -4.30376e+08)
(-5.44524e+07 -1.38822e+07 1.76771e+07 -1.02565e+08 9.71756e+07 -4.52678e+08)
(-3.78073e+07 -8.34906e+06 -1.8195e+06 -5.51201e+07 1.82094e+07 -4.01407e+08)
(-4.01398e+07 1.22507e+07 -6.00823e+07 -5.32465e+07 3.46181e+07 -3.97418e+08)
(-5.30357e+07 2.40593e+07 -9.98837e+07 -1.13177e+08 1.20981e+08 -4.28424e+08)
(-7.47322e+07 1.08876e+07 -8.22293e+07 -1.9164e+08 2.09095e+08 -4.73784e+08)
(-6.40165e+07 -8.13632e+06 -3.89128e+07 -1.77774e+08 2.4643e+08 -4.58964e+08)
(-4.85611e+07 -1.37925e+07 -1.17821e+07 -1.42193e+08 2.27038e+08 -4.29702e+08)
(-2.49733e+07 -1.11385e+07 7.20616e+06 -9.48967e+07 1.59441e+08 -4.19619e+08)
(3.43275e+07 -3.05578e+06 5.92786e+07 -4.84197e+07 1.25621e+08 -3.57863e+08)
(1.41551e+08 -2.79084e+06 2.00794e+08 5.5911e+06 1.14554e+08 -2.17124e+08)
(2.50941e+08 -9.47708e+06 4.71378e+08 6.46015e+07 8.11176e+07 -1.68245e+08)
(-1.69136e+08 -1.15317e+07 4.75239e+08 -4.89045e+08 1.34863e+08 -1.44817e+09)
(-8.07102e+07 1.46426e+07 -1.64588e+08 -2.89979e+08 3.2492e+08 -7.6308e+08)
(2.15427e+07 3.39202e+06 -1.61847e+08 -1.40225e+08 2.21667e+08 -3.64806e+08)
(-2.67512e+07 -1.86825e+07 -6.4073e+07 -1.57501e+08 2.05277e+08 -4.28457e+08)
(-4.22781e+07 -2.29716e+07 1.17049e+07 -1.15305e+08 1.04626e+08 -4.64088e+08)
(-4.80002e+07 -9.09183e+06 3.07518e+07 -7.0145e+07 3.92217e+07 -4.69687e+08)
(-4.56754e+07 7.52824e+06 1.61543e+07 -7.13116e+07 2.6894e+07 -4.42117e+08)
(-4.91142e+07 1.8739e+07 4.0019e+06 -1.14625e+08 7.46609e+07 -4.30496e+08)
(-7.08717e+07 1.06847e+07 1.71292e+07 -1.57396e+08 1.26879e+08 -4.84861e+08)
(-7.35489e+07 -5.5733e+06 4.67366e+07 -1.53893e+08 1.52036e+08 -5.01054e+08)
(-7.02645e+07 -1.56625e+07 6.98289e+07 -1.21434e+08 1.11006e+08 -4.96877e+08)
(-6.63666e+07 -1.24722e+07 6.2656e+07 -6.69182e+07 3.1406e+07 -5.0086e+08)
(-5.16945e+07 -1.10997e+06 2.74317e+07 -4.89973e+07 8.40853e+06 -4.55624e+08)
(-4.53992e+07 7.261e+06 -8.10027e+06 -6.71876e+07 2.09555e+07 -4.37359e+08)
(-5.94603e+07 5.83946e+06 -1.47395e+07 -9.66812e+07 6.32015e+07 -4.768e+08)
(-6.6819e+07 1.99716e+06 -1.09485e+07 -9.34963e+07 6.94545e+07 -5.02922e+08)
(-7.08352e+07 5.91267e+06 -1.69698e+07 -1.00693e+08 8.15178e+07 -5.07992e+08)
(-7.13363e+07 2.35918e+06 -1.46819e+07 -1.23572e+08 1.0599e+08 -5.01394e+08)
(-7.09324e+07 -4.60358e+06 1.0875e+06 -1.20398e+08 9.33546e+07 -5.07626e+08)
(-7.15847e+07 -1.08981e+07 1.07716e+07 -1.00856e+08 7.10372e+07 -5.06501e+08)
(-6.92411e+07 -7.46533e+06 -7.11544e+06 -5.96658e+07 1.31184e+07 -5.02924e+08)
(-5.79557e+07 9.0822e+06 -5.35995e+07 -5.93521e+07 2.30033e+07 -4.57685e+08)
(-6.53315e+07 1.85829e+07 -8.76571e+07 -1.09553e+08 8.57656e+07 -4.68096e+08)
(-7.46229e+07 9.44288e+06 -7.98115e+07 -1.65793e+08 1.48389e+08 -4.85753e+08)
(-7.6803e+07 -5.39305e+06 -4.76341e+07 -1.71049e+08 1.85382e+08 -4.98821e+08)
(-6.09367e+07 -1.03884e+07 -2.05907e+07 -1.44647e+08 1.71276e+08 -4.68743e+08)
(-4.51281e+07 -9.73176e+06 1.71333e+06 -1.01887e+08 1.32691e+08 -4.80455e+08)
(1.78946e+07 -6.695e+06 5.81159e+07 -5.45272e+07 9.5616e+07 -4.05125e+08)
(1.21553e+08 -5.95371e+06 1.97261e+08 5.10974e+06 7.01363e+07 -2.71394e+08)
(2.41341e+08 -9.10821e+06 4.58382e+08 7.28373e+07 4.4459e+07 -1.8686e+08)
(-1.6652e+08 -7.7357e+06 4.55092e+08 -4.87361e+08 7.76337e+07 -1.41132e+09)
(-7.37387e+07 1.36651e+07 -1.33204e+08 -2.59822e+08 2.52572e+08 -7.07196e+08)
(1.87804e+07 3.72141e+06 -1.4379e+08 -1.07066e+08 1.56105e+08 -3.65011e+08)
(-3.7518e+07 -1.31737e+07 -7.26709e+07 -1.41801e+08 1.42148e+08 -4.59402e+08)
(-6.51613e+07 -1.76995e+07 1.24775e+06 -1.15139e+08 8.03529e+07 -5.39389e+08)
(-5.88635e+07 -9.43194e+06 2.75037e+07 -8.07847e+07 3.14055e+07 -5.03105e+08)
(-5.6589e+07 3.14028e+06 1.97513e+07 -8.08464e+07 1.03502e+07 -4.76578e+08)
(-5.9416e+07 1.45487e+07 1.53161e+07 -1.10734e+08 3.59128e+07 -4.68119e+08)
(-6.82368e+07 1.08374e+07 2.4201e+07 -1.3648e+08 8.4066e+07 -4.88076e+08)
(-7.55346e+07 -2.09958e+06 4.41488e+07 -1.43071e+08 1.09674e+08 -5.09301e+08)
(-7.481e+07 -9.97304e+06 6.26078e+07 -1.16776e+08 8.3375e+07 -5.14147e+08)
(-7.73959e+07 -9.67068e+06 5.66751e+07 -6.85412e+07 3.83489e+07 -5.37451e+08)
(-6.04109e+07 -3.08677e+06 2.57938e+07 -5.07933e+07 8.46052e+06 -4.87033e+08)
(-6.21153e+07 5.16668e+06 -4.20824e+06 -6.68423e+07 1.13901e+07 -4.93067e+08)
(-6.40963e+07 5.76312e+06 -1.0455e+07 -9.08636e+07 4.30197e+07 -4.95622e+08)
(-6.657e+07 2.94545e+06 -9.38884e+06 -9.18834e+07 5.47054e+07 -5.03542e+08)
(-7.01758e+07 4.70748e+06 -1.37883e+07 -9.80482e+07 6.49339e+07 -5.08493e+08)
(-7.46977e+07 2.36828e+06 -1.37872e+07 -1.1382e+08 7.94039e+07 -5.18226e+08)
(-8.30836e+07 -3.16843e+06 -881780 -1.10434e+08 7.48943e+07 -5.51427e+08)
(-7.59008e+07 -7.91888e+06 5.66468e+06 -9.38774e+07 5.66301e+07 -5.25221e+08)
(-7.9785e+07 -6.62799e+06 -1.20315e+07 -6.08929e+07 2.46491e+07 -5.4018e+08)
(-6.48661e+07 4.43141e+06 -5.01039e+07 -6.15293e+07 1.862e+07 -4.85878e+08)
(-6.83733e+07 1.30005e+07 -7.88236e+07 -1.02601e+08 5.88517e+07 -4.83796e+08)
(-7.07716e+07 7.69003e+06 -7.74035e+07 -1.41559e+08 1.02962e+08 -4.87799e+08)
(-7.959e+07 -3.42216e+06 -5.41652e+07 -1.59126e+08 1.35276e+08 -5.13781e+08)
(-6.99121e+07 -7.33419e+06 -2.69341e+07 -1.41641e+08 1.2293e+08 -5.01141e+08)
(-4.48954e+07 -7.78831e+06 -2.6564e+06 -1.01956e+08 1.05353e+08 -4.81242e+08)
(7.32123e+06 -8.44345e+06 5.26386e+07 -5.78991e+07 7.10049e+07 -4.3487e+08)
(1.05816e+08 -8.29028e+06 1.9094e+08 7.51036e+06 4.12768e+07 -3.18179e+08)
(2.34582e+08 -9.75377e+06 4.4786e+08 7.90674e+07 1.71188e+07 -2.05552e+08)
(-1.70026e+08 -4.28701e+06 4.4184e+08 -4.81639e+08 2.02146e+07 -1.42724e+09)
(-6.74308e+07 1.18724e+07 -1.05635e+08 -2.27015e+08 1.91462e+08 -6.61465e+08)
(1.63816e+07 3.12655e+06 -1.26823e+08 -7.76559e+07 1.09639e+08 -3.6553e+08)
(-4.2946e+07 -8.33327e+06 -7.6851e+07 -1.24153e+08 9.88449e+07 -4.77637e+08)
(-6.79603e+07 -1.43802e+07 -7.68945e+06 -1.14804e+08 6.91844e+07 -5.48619e+08)
(-5.67719e+07 -1.0651e+07 2.15022e+07 -8.90906e+07 1.99894e+07 -4.95446e+08)
(-6.08033e+07 448675 2.0029e+07 -8.78506e+07 -5.31177e+06 -4.92118e+08)
(-6.72208e+07 1.11655e+07 2.3534e+07 -1.0762e+08 9.93989e+06 -4.99058e+08)
(-6.40863e+07 9.89595e+06 3.11121e+07 -1.19389e+08 5.12842e+07 -4.85998e+08)
(-7.25997e+07 449768 4.41452e+07 -1.31352e+08 7.37032e+07 -5.05161e+08)
(-7.2364e+07 -4.55994e+06 5.93667e+07 -1.10525e+08 6.01217e+07 -5.10509e+08)
(-6.98833e+07 -6.45353e+06 5.2301e+07 -6.909e+07 4.46644e+07 -5.14436e+08)
(-5.94553e+07 -3.75768e+06 2.30496e+07 -5.08974e+07 1.20161e+07 -4.88307e+08)
(-6.29513e+07 3.03669e+06 -1.57271e+06 -6.40612e+07 1.25707e+07 -5.01804e+08)
(-6.18709e+07 3.94814e+06 -7.06267e+06 -8.43448e+07 2.906e+07 -4.94735e+08)
(-5.9898e+07 2.8428e+06 -7.31621e+06 -8.75411e+07 3.73634e+07 -4.87021e+08)
(-6.29821e+07 4.38376e+06 -1.08099e+07 -9.255e+07 4.6212e+07 -4.91629e+08)
(-7.05463e+07 3.75054e+06 -1.17799e+07 -1.0343e+08 6.04025e+07 -5.12818e+08)
(-7.8369e+07 -1.87971e+06 -2.15706e+06 -9.98968e+07 6.90677e+07 -5.43259e+08)
(-7.03457e+07 -5.91649e+06 1.87445e+06 -8.60007e+07 4.78411e+07 -5.13694e+08)
(-7.10478e+07 -5.84301e+06 -1.65994e+07 -6.12994e+07 3.598e+07 -5.15388e+08)
(-6.32997e+07 209609 -5.03311e+07 -6.18626e+07 1.68061e+07 -4.87253e+08)
(-6.65478e+07 8.06485e+06 -7.35263e+07 -9.47614e+07 3.75036e+07 -4.86936e+08)
(-6.50784e+07 5.88894e+06 -7.53067e+07 -1.21517e+08 6.83744e+07 -4.83349e+08)
(-7.73386e+07 -1.5931e+06 -5.84553e+07 -1.45856e+08 9.40398e+07 -5.15418e+08)
(-7.3978e+07 -5.26683e+06 -3.17672e+07 -1.3379e+08 8.73942e+07 -5.22062e+08)