/*--------------------------------*- C++ -*----------------------------------*\
| =========                 |                                                 |
| \\      /  F ield         | OpenFOAM: The Open Source CFD Toolbox           |
|  \\    /   O peration     | Version:  2106                                  |
|   \\  /    A nd           | Website:  www.openfoam.com                      |
|    \\/     M anipulation  |                                                 |
\*---------------------------------------------------------------------------*/
FoamFile
{
    version     2.0;
    format      ascii;
    arch        "LSB;label=32;scalar=64";
    class       volVectorField;
    location    "557";
    object      D;
}
// * * * * * * * * * * * * * * * * * * * * * * * * * * * * * * * * * * * * * //

dimensions      [0 1 0 0 0 0 0];

internalField   nonuniform List<vector> 
9000
(
(1.14013e-05 2.08539e-05 3.13321e-06)
(1.32504e-06 2.19598e-05 8.19418e-08)
(2.18895e-07 2.33118e-05 1.22928e-06)
(3.88253e-08 2.36142e-05 1.44261e-06)
(4.8447e-09 2.36231e-05 1.4457e-06)
(1.8966e-09 2.35884e-05 1.42377e-06)
(2.1764e-09 2.36078e-05 1.43572e-06)
(9.43259e-10 2.35876e-05 1.42364e-06)
(2.166e-09 2.35871e-05 1.42321e-06)
(3.12874e-10 2.36143e-05 1.44063e-06)
(-2.20664e-09 2.35988e-05 1.42913e-06)
(1.91477e-09 2.35714e-05 1.41096e-06)
(3.01689e-09 2.36106e-05 1.43832e-06)
(-1.13485e-09 2.36114e-05 1.43851e-06)
(1.33736e-10 2.36025e-05 1.43109e-06)
(1.16164e-09 2.36154e-05 1.44114e-06)
(-1.60942e-09 2.36111e-05 1.43829e-06)
(-2.71146e-10 2.36031e-05 1.43148e-06)
(-1.59049e-09 2.36121e-05 1.43929e-06)
(-1.71128e-09 2.35733e-05 1.41268e-06)
(1.49037e-09 2.35846e-05 1.42155e-06)
(1.0533e-10 2.36129e-05 1.43963e-06)
(-2.31804e-09 2.36152e-05 1.44117e-06)
(-2.2496e-09 2.35898e-05 1.42493e-06)
(-2.31134e-09 2.36104e-05 1.43837e-06)
(-7.49383e-09 2.35978e-05 1.42946e-06)
(-3.8277e-08 2.35957e-05 1.42939e-06)
(-2.17185e-07 2.33054e-05 1.22532e-06)
(-1.32489e-06 2.19593e-05 8.16795e-08)
(-1.14015e-05 2.08528e-05 3.13267e-06)
(1.10747e-05 1.25644e-05 -5.84669e-06)
(1.22267e-06 1.31888e-05 -9.25912e-06)
(1.42942e-07 1.40063e-05 -8.68763e-06)
(2.11709e-08 1.42108e-05 -8.60734e-06)
(5.30375e-09 1.42169e-05 -8.60821e-06)
(2.88837e-09 1.41994e-05 -8.60651e-06)
(2.24813e-09 1.42059e-05 -8.6099e-06)
(1.43179e-09 1.41997e-05 -8.60568e-06)
(1.223e-09 1.41992e-05 -8.60594e-06)
(9.14304e-10 1.42098e-05 -8.60939e-06)
(4.19121e-10 1.42064e-05 -8.60724e-06)
(5.98708e-10 1.41958e-05 -8.60348e-06)
(4.67513e-10 1.42067e-05 -8.60976e-06)
(-1.11167e-10 1.42056e-05 -8.60881e-06)
(-4.37919e-11 1.4209e-05 -8.60719e-06)
(-1.64844e-11 1.42107e-05 -8.60933e-06)
(-2.82586e-10 1.42055e-05 -8.60885e-06)
(-1.64285e-10 1.42093e-05 -8.60714e-06)
(-3.85524e-10 1.42084e-05 -8.60946e-06)
(-6.67609e-10 1.41971e-05 -8.60345e-06)
(-9.25904e-10 1.41977e-05 -8.60543e-06)
(-1.21461e-09 1.42082e-05 -8.61012e-06)
(-1.57277e-09 1.42105e-05 -8.60936e-06)
(-1.98721e-09 1.42007e-05 -8.6058e-06)
(-2.67276e-09 1.42064e-05 -8.61017e-06)
(-5.49901e-09 1.42075e-05 -8.60442e-06)
(-2.12043e-08 1.42053e-05 -8.60522e-06)
(-1.42985e-07 1.39997e-05 -8.68765e-06)
(-1.2228e-06 1.31885e-05 -9.2591e-06)
(-1.10748e-05 1.25631e-05 -5.84695e-06)
(1.11456e-05 7.77742e-06 -7.4104e-06)
(1.21864e-06 8.20015e-06 -1.09328e-05)
(1.29866e-07 8.74726e-06 -1.04557e-05)
(1.56262e-08 8.89423e-06 -1.04014e-05)
(5.44478e-09 8.90017e-06 -1.04033e-05)
(3.22461e-09 8.89476e-06 -1.04005e-05)
(2.25859e-09 8.89181e-06 -1.04036e-05)
(1.819e-09 8.89712e-06 -1.04005e-05)
(6.96794e-10 8.89645e-06 -1.04008e-05)
(8.00252e-10 8.89496e-06 -1.04035e-05)
(1.48219e-09 8.89253e-06 -1.04027e-05)
(2.91584e-10 8.89446e-06 -1.03991e-05)
(-8.09846e-10 8.89139e-06 -1.04021e-05)
(7.67301e-11 8.89527e-06 -1.04018e-05)
(1.18924e-10 8.89458e-06 -1.04029e-05)
(-5.36415e-10 8.89568e-06 -1.04036e-05)
(5.06547e-11 8.89524e-06 -1.04019e-05)
(1.72731e-10 8.89458e-06 -1.04029e-05)
(2.64311e-10 8.8941e-06 -1.04032e-05)
(-9.91056e-11 8.89537e-06 -1.03996e-05)
(-1.82388e-09 8.89606e-06 -1.03997e-05)
(-1.93819e-09 8.89223e-06 -1.04031e-05)
(-1.1234e-09 8.89564e-06 -1.04036e-05)
(-1.88989e-09 8.89696e-06 -1.04011e-05)
(-2.75987e-09 8.89073e-06 -1.04032e-05)
(-4.63668e-09 8.90258e-06 -1.04001e-05)
(-1.62941e-08 8.89053e-06 -1.04001e-05)
(-1.30519e-07 8.74571e-06 -1.04539e-05)
(-1.21868e-06 8.19995e-06 -1.09326e-05)
(-1.11455e-05 7.7758e-06 -7.41087e-06)
(1.15312e-05 4.89037e-06 -7.09773e-06)
(1.26106e-06 5.15989e-06 -1.0743e-05)
(1.4265e-07 5.55747e-06 -1.02383e-05)
(1.67744e-08 5.66392e-06 -1.018e-05)
(4.96286e-09 5.66964e-06 -1.01823e-05)
(3.19096e-09 5.66629e-06 -1.01821e-05)
(2.36309e-09 5.66259e-06 -1.01824e-05)
(1.69982e-09 5.66741e-06 -1.01835e-05)
(8.92865e-10 5.66578e-06 -1.01827e-05)
(9.61802e-10 5.66619e-06 -1.01823e-05)
(1.38557e-09 5.66434e-06 -1.01823e-05)
(1.09134e-10 5.66544e-06 -1.01823e-05)
(-6.16446e-10 5.6658e-06 -1.01811e-05)
(2.73158e-10 5.67114e-06 -1.01821e-05)
(1.07978e-11 5.66629e-06 -1.01822e-05)
(-4.36402e-10 5.66683e-06 -1.01825e-05)
(6.02595e-11 5.67108e-06 -1.01822e-05)
(1.42036e-10 5.66625e-06 -1.01822e-05)
(8.20544e-11 5.66558e-06 -1.01816e-05)
(-3.09771e-10 5.66626e-06 -1.01831e-05)
(-1.7705e-09 5.66671e-06 -1.01826e-05)
(-1.81266e-09 5.66581e-06 -1.01815e-05)
(-1.16396e-09 5.66692e-06 -1.01825e-05)
(-2.06513e-09 5.66591e-06 -1.01834e-05)
(-2.72024e-09 5.6635e-06 -1.01812e-05)
(-4.22648e-09 5.67102e-06 -1.01828e-05)
(-1.71228e-08 5.66146e-06 -1.01795e-05)
(-1.43326e-07 5.56062e-06 -1.02373e-05)
(-1.26132e-06 5.15982e-06 -1.07428e-05)
(-1.15306e-05 4.88792e-06 -7.09754e-06)
(1.20061e-05 3.08845e-06 -6.68508e-06)
(1.31993e-06 3.23574e-06 -1.04719e-05)
(1.6103e-07 3.53288e-06 -9.93139e-06)
(1.99674e-08 3.61013e-06 -9.86563e-06)
(4.76625e-09 3.61482e-06 -9.86756e-06)
(2.83871e-09 3.61728e-06 -9.86871e-06)
(2.37875e-09 3.61108e-06 -9.86821e-06)
(1.5931e-09 3.61411e-06 -9.86903e-06)
(1.07333e-09 3.61419e-06 -9.86854e-06)
(1.18394e-09 3.61296e-06 -9.86799e-06)
(1.1095e-09 3.61119e-06 -9.8679e-06)
(2.03015e-10 3.61251e-06 -9.86835e-06)
(-3.67244e-10 3.61547e-06 -9.86856e-06)
(2.51262e-10 3.61654e-06 -9.86936e-06)
(5.21075e-11 3.61352e-06 -9.8681e-06)
(-4.04135e-10 3.6135e-06 -9.86848e-06)
(3.76056e-12 3.61642e-06 -9.86947e-06)
(1.46185e-10 3.6135e-06 -9.86812e-06)
(-1.5358e-10 3.61252e-06 -9.86734e-06)
(-5.23124e-10 3.61319e-06 -9.86884e-06)
(-1.43681e-09 3.61364e-06 -9.86841e-06)
(-1.56275e-09 3.61488e-06 -9.86806e-06)
(-1.48268e-09 3.61398e-06 -9.86834e-06)
(-2.23228e-09 3.61406e-06 -9.86893e-06)
(-2.48672e-09 3.61413e-06 -9.86814e-06)
(-4.17779e-09 3.61622e-06 -9.86821e-06)
(-2.02604e-08 3.60824e-06 -9.86531e-06)
(-1.61517e-07 3.53452e-06 -9.93218e-06)
(-1.32028e-06 3.23573e-06 -1.04717e-05)
(-1.20046e-05 3.08809e-06 -6.68482e-06)
(1.24208e-05 1.94921e-06 -6.45388e-06)
(1.37769e-06 2.0161e-06 -1.03624e-05)
(1.77751e-07 2.23319e-06 -9.79613e-06)
(2.33922e-08 2.2923e-06 -9.7261e-06)
(4.96791e-09 2.29788e-06 -9.72807e-06)
(2.68101e-09 2.3004e-06 -9.73019e-06)
(2.24522e-09 2.29661e-06 -9.7291e-06)
(1.6744e-09 2.29641e-06 -9.72911e-06)
(1.08122e-09 2.29829e-06 -9.72938e-06)
(9.8006e-10 2.29482e-06 -9.72862e-06)
(9.31483e-10 2.29538e-06 -9.72873e-06)
(3.14979e-10 2.29438e-06 -9.72833e-06)
(-1.14009e-10 2.2961e-06 -9.72982e-06)
(3.3438e-10 2.29781e-06 -9.72933e-06)
(4.60572e-11 2.29595e-06 -9.72866e-06)
(-3.40711e-10 2.29512e-06 -9.72871e-06)
(-2.84528e-11 2.29768e-06 -9.72937e-06)
(4.8909e-12 2.29597e-06 -9.72871e-06)
(-3.12599e-10 2.29427e-06 -9.72807e-06)
(-5.61327e-10 2.29536e-06 -9.72911e-06)
(-1.3768e-09 2.29575e-06 -9.72864e-06)
(-1.38159e-09 2.29777e-06 -9.72977e-06)
(-1.31115e-09 2.29639e-06 -9.72895e-06)
(-2.36268e-09 2.29743e-06 -9.7289e-06)
(-2.48746e-09 2.29814e-06 -9.73023e-06)
(-4.32828e-09 2.29728e-06 -9.72834e-06)
(-2.38233e-08 2.29005e-06 -9.72519e-06)
(-1.78043e-07 2.23406e-06 -9.79685e-06)
(-1.37785e-06 2.01612e-06 -1.03621e-05)
(-1.24189e-05 1.95103e-06 -6.45405e-06)
(1.2725e-05 1.22834e-06 -6.34357e-06)
(1.42557e-06 1.25136e-06 -1.03402e-05)
(1.91079e-07 1.40758e-06 -9.75746e-06)
(2.66796e-08 1.45109e-06 -9.68505e-06)
(5.24373e-09 1.45729e-06 -9.68685e-06)
(2.42457e-09 1.4574e-06 -9.68893e-06)
(2.14855e-09 1.45722e-06 -9.6887e-06)
(1.66788e-09 1.4549e-06 -9.68796e-06)
(9.48537e-10 1.45599e-06 -9.6886e-06)
(1.00427e-09 1.45476e-06 -9.68814e-06)
(7.63386e-10 1.45574e-06 -9.68804e-06)
(9.77794e-11 1.45405e-06 -9.68802e-06)
(2.35329e-10 1.45465e-06 -9.68838e-06)
(5.07443e-10 1.45569e-06 -9.68792e-06)
(-8.8026e-11 1.45447e-06 -9.6877e-06)
(-2.58044e-10 1.45478e-06 -9.68796e-06)
(4.95685e-11 1.45557e-06 -9.68794e-06)
(-3.0199e-10 1.45453e-06 -9.68774e-06)
(-4.27217e-10 1.45388e-06 -9.68818e-06)
(-4.61481e-10 1.45334e-06 -9.68774e-06)
(-1.12811e-09 1.4534e-06 -9.68756e-06)
(-1.19043e-09 1.45717e-06 -9.68858e-06)
(-1.52807e-09 1.45494e-06 -9.68799e-06)
(-2.40471e-09 1.45622e-06 -9.68863e-06)
(-2.34403e-09 1.45745e-06 -9.68943e-06)
(-4.76294e-09 1.45458e-06 -9.6869e-06)
(-2.69089e-08 1.44978e-06 -9.68471e-06)
(-1.91149e-07 1.40809e-06 -9.75753e-06)
(-1.42572e-06 1.25138e-06 -1.03398e-05)
(-1.27237e-05 1.22964e-06 -6.34428e-06)
(1.2926e-05 7.7307e-07 -6.28809e-06)
(1.46135e-06 7.76236e-07 -1.03426e-05)
(2.01222e-07 8.86472e-07 -9.74943e-06)
(2.89885e-08 9.17246e-07 -9.67567e-06)
(5.51222e-09 9.21831e-07 -9.67767e-06)
(2.42781e-09 9.22053e-07 -9.67888e-06)
(2.02762e-09 9.23068e-07 -9.67949e-06)
(1.55131e-09 9.20554e-07 -9.67859e-06)
(1.04315e-09 9.21146e-07 -9.67881e-06)
(9.78822e-10 9.21869e-07 -9.67874e-06)
(6.03801e-10 9.2109e-07 -9.67894e-06)
(6.68533e-11 9.20724e-07 -9.67878e-06)
(3.26961e-10 9.22334e-07 -9.67913e-06)
(5.0969e-10 9.21035e-07 -9.67844e-06)
(-1.3071e-11 9.2013e-07 -9.67847e-06)
(-1.7808e-10 9.2176e-07 -9.6786e-06)
(-8.22915e-11 9.20922e-07 -9.67847e-06)
(-3.74755e-10 9.20236e-07 -9.67843e-06)
(-5.89524e-10 9.20397e-07 -9.679e-06)
(-6.9647e-10 9.20099e-07 -9.67877e-06)
(-8.5794e-10 9.19569e-07 -9.67881e-06)
(-8.93805e-10 9.21909e-07 -9.67915e-06)
(-1.47864e-09 9.20634e-07 -9.67865e-06)
(-2.32876e-09 9.2268e-07 -9.67915e-06)
(-2.52215e-09 9.23993e-07 -9.67997e-06)
(-5.13644e-09 9.20935e-07 -9.6778e-06)
(-2.89533e-08 9.16583e-07 -9.6759e-06)
(-2.01219e-07 8.86625e-07 -9.74919e-06)
(-1.46155e-06 7.7611e-07 -1.0342e-05)
(-1.29254e-05 7.73965e-07 -6.28851e-06)
(1.30505e-05 4.85791e-07 -6.2566e-06)
(1.48586e-06 4.8205e-07 -1.03471e-05)
(2.08804e-07 5.56947e-07 -9.74747e-06)
(3.07293e-08 5.79319e-07 -9.6728e-06)
(5.73187e-09 5.82652e-07 -9.67481e-06)
(2.45967e-09 5.82938e-07 -9.67574e-06)
(1.9301e-09 5.83509e-07 -9.6764e-06)
(1.49335e-09 5.82051e-07 -9.67575e-06)
(1.10073e-09 5.82379e-07 -9.67574e-06)
(9.46135e-10 5.82913e-07 -9.67571e-06)
(3.99962e-10 5.82386e-07 -9.67577e-06)
(2.23178e-10 5.82803e-07 -9.67645e-06)
(4.85304e-10 5.84291e-07 -9.6763e-06)
(3.15857e-10 5.82384e-07 -9.67559e-06)
(1.58693e-11 5.81514e-07 -9.67582e-06)
(-1.02481e-10 5.82761e-07 -9.67575e-06)
(-1.67006e-10 5.82292e-07 -9.67564e-06)
(-5.46375e-10 5.81765e-07 -9.67569e-06)
(-5.16636e-10 5.81954e-07 -9.67631e-06)
(-6.28177e-10 5.82669e-07 -9.67609e-06)
(-8.27141e-10 5.83197e-07 -9.67651e-06)
(-7.87482e-10 5.82881e-07 -9.67587e-06)
(-1.44682e-09 5.82158e-07 -9.67577e-06)
(-2.0927e-09 5.83395e-07 -9.67625e-06)
(-2.46212e-09 5.85185e-07 -9.67658e-06)
(-5.74155e-09 5.83351e-07 -9.67492e-06)
(-3.07675e-08 5.78713e-07 -9.67364e-06)
(-2.08619e-07 5.56884e-07 -9.74721e-06)
(-1.48602e-06 4.81763e-07 -1.03468e-05)
(-1.30504e-05 4.86514e-07 -6.2567e-06)
(1.31247e-05 3.04246e-07 -6.2374e-06)
(1.5017e-06 2.99556e-07 -1.03495e-05)
(2.14323e-07 3.49329e-07 -9.74562e-06)
(3.2042e-08 3.65244e-07 -9.67074e-06)
(5.93517e-09 3.67477e-07 -9.67278e-06)
(2.50015e-09 3.679e-07 -9.67363e-06)
(1.86336e-09 3.6822e-07 -9.6739e-06)
(1.44341e-09 3.67395e-07 -9.67371e-06)
(1.10391e-09 3.67588e-07 -9.67368e-06)
(9.169e-10 3.67854e-07 -9.67345e-06)
(4.71489e-10 3.67618e-07 -9.67357e-06)
(3.17128e-10 3.6879e-07 -9.67407e-06)
(4.10771e-10 3.6877e-07 -9.67404e-06)
(1.55504e-10 3.67642e-07 -9.67355e-06)
(1.90529e-12 3.66438e-07 -9.6737e-06)
(-1.1049e-11 3.67776e-07 -9.67365e-06)
(-2.03949e-10 3.67601e-07 -9.67362e-06)
(-6.02129e-10 3.67052e-07 -9.67386e-06)
(-4.94427e-10 3.68841e-07 -9.67441e-06)
(-4.70365e-10 3.67182e-07 -9.67407e-06)
(-7.49727e-10 3.68916e-07 -9.67459e-06)
(-8.80665e-10 3.67897e-07 -9.67365e-06)
(-1.42345e-09 3.67521e-07 -9.6737e-06)
(-1.94503e-09 3.68209e-07 -9.67385e-06)
(-2.45088e-09 3.69182e-07 -9.6741e-06)
(-6.09534e-09 3.68104e-07 -9.67298e-06)
(-3.21362e-08 3.65988e-07 -9.67175e-06)
(-2.14084e-07 3.4911e-07 -9.74547e-06)
(-1.50181e-06 2.99327e-07 -1.03494e-05)
(-1.3125e-05 3.05054e-07 -6.23722e-06)
(1.3168e-05 1.88898e-07 -6.2252e-06)
(1.51157e-06 1.85612e-07 -1.03504e-05)
(2.18217e-07 2.18027e-07 -9.74409e-06)
(3.29669e-08 2.29064e-07 -9.66902e-06)
(6.06599e-09 2.29992e-07 -9.67115e-06)
(2.59026e-09 2.30904e-07 -9.67195e-06)
(1.82313e-09 2.31126e-07 -9.67204e-06)
(1.39851e-09 2.3067e-07 -9.67203e-06)
(1.07877e-09 2.30813e-07 -9.67202e-06)
(8.86648e-10 2.30968e-07 -9.67191e-06)
(5.21237e-10 2.30773e-07 -9.67187e-06)
(3.84209e-10 2.31237e-07 -9.67245e-06)
(3.81487e-10 2.31487e-07 -9.67196e-06)
(-4.1377e-11 2.30879e-07 -9.67186e-06)
(-8.30078e-13 2.30537e-07 -9.67241e-06)
(1.45102e-10 2.31006e-07 -9.67191e-06)
(-2.60395e-10 2.30883e-07 -9.6719e-06)
(-4.70585e-10 2.29966e-07 -9.6721e-06)
(-5.38809e-10 2.32549e-07 -9.67256e-06)
(-5.76092e-10 2.30999e-07 -9.67253e-06)
(-6.12458e-10 2.30998e-07 -9.67255e-06)
(-8.98632e-10 2.30861e-07 -9.67197e-06)
(-1.39832e-09 2.30806e-07 -9.672e-06)
(-1.85349e-09 2.31151e-07 -9.672e-06)
(-2.46303e-09 2.31656e-07 -9.67197e-06)
(-6.23404e-09 2.30922e-07 -9.67108e-06)
(-3.31594e-08 2.2943e-07 -9.66985e-06)
(-2.18073e-07 2.17581e-07 -9.74415e-06)
(-1.51159e-06 1.85454e-07 -1.03504e-05)
(-1.31685e-05 1.90136e-07 -6.22515e-06)
(1.3193e-05 1.16515e-07 -6.21817e-06)
(1.51763e-06 1.13577e-07 -1.03508e-05)
(2.2087e-07 1.34161e-07 -9.74303e-06)
(3.35684e-08 1.41591e-07 -9.66777e-06)
(6.17487e-09 1.42685e-07 -9.67033e-06)
(2.73385e-09 1.42699e-07 -9.67082e-06)
(1.80675e-09 1.42924e-07 -9.67081e-06)
(1.36624e-09 1.42694e-07 -9.67083e-06)
(1.07044e-09 1.42817e-07 -9.67083e-06)
(8.59775e-10 1.42987e-07 -9.67071e-06)
(5.08062e-10 1.42644e-07 -9.67075e-06)
(4.3697e-10 1.42413e-07 -9.6709e-06)
(4.00518e-10 1.4317e-07 -9.67061e-06)
(-5.85586e-12 1.42872e-07 -9.67066e-06)
(7.83904e-12 1.43233e-07 -9.67115e-06)
(9.19617e-11 1.42976e-07 -9.67059e-06)
(-3.84421e-10 1.42944e-07 -9.6706e-06)
(-3.96315e-10 1.42857e-07 -9.67121e-06)
(-3.23712e-10 1.43848e-07 -9.67112e-06)
(-7.14486e-10 1.43559e-07 -9.67117e-06)
(-7.09441e-10 1.43423e-07 -9.67127e-06)
(-8.25757e-10 1.42531e-07 -9.67092e-06)
(-1.36567e-09 1.42836e-07 -9.67077e-06)
(-1.80112e-09 1.42945e-07 -9.67075e-06)
(-2.49379e-09 1.43219e-07 -9.67064e-06)
(-6.48562e-09 1.42519e-07 -9.66992e-06)
(-3.39536e-08 1.41473e-07 -9.66863e-06)
(-2.20671e-07 1.33271e-07 -9.74303e-06)
(-1.5174e-06 1.13477e-07 -1.03508e-05)
(-1.31935e-05 1.16748e-07 -6.21778e-06)
(1.32076e-05 6.94604e-08 -6.21389e-06)
(1.52093e-06 6.68681e-08 -1.03509e-05)
(2.22594e-07 7.93566e-08 -9.74235e-06)
(3.4173e-08 8.40982e-08 -9.66691e-06)
(6.23139e-09 8.51624e-08 -9.66943e-06)
(2.66167e-09 8.44785e-08 -9.67025e-06)
(1.81464e-09 8.48617e-08 -9.67005e-06)
(1.34856e-09 8.47727e-08 -9.67008e-06)
(1.07219e-09 8.48721e-08 -9.67007e-06)
(8.25645e-10 8.49327e-08 -9.66986e-06)
(4.09727e-10 8.44854e-08 -9.67019e-06)
(4.89626e-10 8.50668e-08 -9.67036e-06)
(4.95449e-10 8.50776e-08 -9.66983e-06)
(-3.76436e-11 8.4906e-08 -9.66991e-06)
(1.31595e-11 8.43678e-08 -9.67038e-06)
(1.22031e-10 8.48417e-08 -9.66971e-06)
(-2.79218e-10 8.4958e-08 -9.6697e-06)
(-3.49547e-10 8.57611e-08 -9.67018e-06)
(-4.10167e-10 8.54868e-08 -9.66994e-06)
(-6.26494e-10 8.46549e-08 -9.67035e-06)
(-7.64008e-10 8.60961e-08 -9.67006e-06)
(-9.55728e-10 8.40414e-08 -9.67012e-06)
(-1.31894e-09 8.49203e-08 -9.66993e-06)
(-1.77687e-09 8.48377e-08 -9.67e-06)
(-2.54966e-09 8.50329e-08 -9.66986e-06)
(-6.58152e-09 8.40179e-08 -9.66907e-06)
(-3.45339e-08 8.517e-08 -9.66762e-06)
(-2.22469e-07 7.93361e-08 -9.74268e-06)
(-1.52069e-06 6.67618e-08 -1.03509e-05)
(-1.32077e-05 6.89538e-08 -6.21348e-06)
(1.32156e-05 3.5633e-08 -6.21146e-06)
(1.52284e-06 3.49625e-08 -1.0351e-05)
(2.23626e-07 4.1666e-08 -9.74198e-06)
(3.44826e-08 4.42064e-08 -9.66635e-06)
(6.19726e-09 4.38113e-08 -9.6693e-06)
(2.70676e-09 4.38399e-08 -9.66978e-06)
(1.86336e-09 4.46607e-08 -9.66963e-06)
(1.3423e-09 4.46518e-08 -9.66966e-06)
(1.05219e-09 4.47209e-08 -9.66964e-06)
(7.57827e-10 4.46583e-08 -9.66957e-06)
(5.4054e-10 4.38959e-08 -9.66973e-06)
(5.61812e-10 4.55817e-08 -9.66965e-06)
(3.83554e-10 4.48672e-08 -9.66935e-06)
(-1.60766e-10 4.47559e-08 -9.66949e-06)
(-1.76603e-11 4.47189e-08 -9.67016e-06)
(2.26817e-10 4.44659e-08 -9.66953e-06)
(-1.92886e-10 4.47388e-08 -9.66937e-06)
(-2.97018e-10 4.51356e-08 -9.66977e-06)
(-5.34467e-10 4.50043e-08 -9.66929e-06)
(-5.87601e-10 4.50268e-08 -9.67004e-06)
(-8.03724e-10 4.5307e-08 -9.66954e-06)
(-1.02306e-09 4.4578e-08 -9.6701e-06)
(-1.21789e-09 4.47169e-08 -9.6694e-06)
(-1.76896e-09 4.45282e-08 -9.66967e-06)
(-2.66363e-09 4.47771e-08 -9.66944e-06)
(-6.49893e-09 4.45667e-08 -9.669e-06)
(-3.45858e-08 4.5531e-08 -9.66686e-06)
(-2.23661e-07 4.25232e-08 -9.74208e-06)
(-1.52267e-06 3.47433e-08 -1.0351e-05)
(-1.32157e-05 3.61933e-08 -6.21111e-06)
(1.3219e-05 1.13841e-08 -6.21038e-06)
(1.52383e-06 1.08368e-08 -1.03511e-05)
(2.24085e-07 1.29316e-08 -9.74183e-06)
(3.44588e-08 1.36226e-08 -9.66629e-06)
(6.13041e-09 1.32261e-08 -9.66924e-06)
(2.85885e-09 1.38795e-08 -9.66992e-06)
(1.9792e-09 1.38604e-08 -9.66945e-06)
(1.34365e-09 1.38824e-08 -9.66948e-06)
(1.03884e-09 1.39175e-08 -9.66945e-06)
(6.33687e-10 1.38925e-08 -9.66946e-06)
(5.9307e-10 1.39065e-08 -9.66986e-06)
(6.86332e-10 1.41688e-08 -9.66959e-06)
(3.45522e-10 1.38814e-08 -9.66906e-06)
(-8.04733e-11 1.39594e-08 -9.6693e-06)
(-5.77745e-11 1.44503e-08 -9.66982e-06)
(1.3834e-10 1.3493e-08 -9.66963e-06)
(-1.32185e-10 1.38859e-08 -9.66913e-06)
(-2.83142e-10 1.40318e-08 -9.66938e-06)
(-4.32151e-10 1.39937e-08 -9.66922e-06)
(-5.69925e-10 1.489e-08 -9.66949e-06)
(-8.34598e-10 1.4135e-08 -9.66929e-06)
(-1.05117e-09 1.43803e-08 -9.66982e-06)
(-1.3105e-09 1.38567e-08 -9.66934e-06)
(-1.74717e-09 1.3504e-08 -9.66967e-06)
(-2.55599e-09 1.39166e-08 -9.66923e-06)
(-6.471e-09 1.43806e-08 -9.66864e-06)
(-3.47591e-08 1.41477e-08 -9.66658e-06)
(-2.24277e-07 1.33767e-08 -9.74197e-06)
(-1.52356e-06 1.03114e-08 -1.03513e-05)
(-1.32191e-05 1.12373e-08 -6.21011e-06)
(1.32193e-05 -1.03542e-08 -6.21019e-06)
(1.52365e-06 -1.089e-08 -1.03511e-05)
(2.24065e-07 -1.3039e-08 -9.74181e-06)
(3.44801e-08 -1.39639e-08 -9.66635e-06)
(6.2727e-09 -1.30977e-08 -9.66917e-06)
(2.83345e-09 -1.31304e-08 -9.66961e-06)
(1.8686e-09 -1.40238e-08 -9.66946e-06)
(1.34752e-09 -1.39846e-08 -9.66946e-06)
(1.03896e-09 -1.39644e-08 -9.66946e-06)
(7.35876e-10 -1.39526e-08 -9.66948e-06)
(5.80109e-10 -1.31715e-08 -9.66957e-06)
(5.51479e-10 -1.42081e-08 -9.66962e-06)
(3.53579e-10 -1.42462e-08 -9.66927e-06)
(-4.69638e-11 -1.39319e-08 -9.6693e-06)
(-1.13364e-10 -1.43187e-08 -9.66981e-06)
(1.12315e-10 -1.4768e-08 -9.66962e-06)
(-7.66251e-11 -1.40786e-08 -9.66927e-06)
(-2.4811e-10 -1.41115e-08 -9.66938e-06)
(-3.75367e-10 -1.39154e-08 -9.66923e-06)
(-5.72066e-10 -1.35267e-08 -9.66953e-06)
(-8.85685e-10 -1.39156e-08 -9.66928e-06)
(-1.06226e-09 -1.43799e-08 -9.66983e-06)
(-1.35118e-09 -1.39945e-08 -9.6694e-06)
(-1.74329e-09 -1.48001e-08 -9.66964e-06)
(-2.50059e-09 -1.40338e-08 -9.66924e-06)
(-6.48879e-09 -1.44892e-08 -9.66852e-06)
(-3.47565e-08 -1.41395e-08 -9.66658e-06)
(-2.24471e-07 -1.27608e-08 -9.74176e-06)
(-1.52364e-06 -1.19769e-08 -1.03511e-05)
(-1.32188e-05 -1.1279e-08 -6.21015e-06)
(1.32159e-05 -3.61551e-08 -6.2116e-06)
(1.52274e-06 -3.5052e-08 -1.03511e-05)
(2.23576e-07 -4.18346e-08 -9.74197e-06)
(3.45499e-08 -4.47218e-08 -9.66661e-06)
(6.34598e-09 -4.38132e-08 -9.66904e-06)
(2.64855e-09 -4.43493e-08 -9.66983e-06)
(1.8098e-09 -4.48224e-08 -9.66966e-06)
(1.35786e-09 -4.47722e-08 -9.66964e-06)
(1.05646e-09 -4.4733e-08 -9.66965e-06)
(7.84594e-10 -4.47042e-08 -9.66961e-06)
(5.05158e-10 -4.4416e-08 -9.66981e-06)
(4.58719e-10 -4.55937e-08 -9.66973e-06)
(4.11365e-10 -4.52675e-08 -9.66975e-06)
(-7.9276e-11 -4.46957e-08 -9.66944e-06)
(-2.10562e-10 -4.44718e-08 -9.67008e-06)
(1.70078e-10 -4.46279e-08 -9.67001e-06)
(-7.37199e-12 -4.48524e-08 -9.66952e-06)
(-2.1202e-10 -4.52305e-08 -9.66977e-06)
(-3.27782e-10 -4.4814e-08 -9.66926e-06)
(-5.91231e-10 -4.45911e-08 -9.66955e-06)
(-9.90574e-10 -4.48426e-08 -9.66947e-06)
(-1.06286e-09 -4.45676e-08 -9.67011e-06)
(-1.37155e-09 -4.47348e-08 -9.6696e-06)
(-1.75593e-09 -4.47325e-08 -9.67013e-06)
(-2.4976e-09 -4.48245e-08 -9.66947e-06)
(-6.49959e-09 -4.47903e-08 -9.66897e-06)
(-3.45311e-08 -4.54471e-08 -9.6668e-06)
(-2.24246e-07 -4.14925e-08 -9.74177e-06)
(-1.5229e-06 -3.49731e-08 -1.03512e-05)
(-1.32148e-05 -3.62016e-08 -6.21121e-06)
(1.32078e-05 -6.97782e-08 -6.21368e-06)
(1.52088e-06 -6.69323e-08 -1.0351e-05)
(2.22501e-07 -7.96333e-08 -9.74245e-06)
(3.4267e-08 -8.50344e-08 -9.66715e-06)
(6.38577e-09 -8.52204e-08 -9.66926e-06)
(2.60764e-09 -8.47456e-08 -9.67006e-06)
(1.78458e-09 -8.49642e-08 -9.67011e-06)
(1.37143e-09 -8.49019e-08 -9.67009e-06)
(1.09669e-09 -8.48509e-08 -9.67007e-06)
(8.0963e-10 -8.48876e-08 -9.66983e-06)
(3.45514e-10 -8.47717e-08 -9.67005e-06)
(3.6613e-10 -8.5006e-08 -9.67043e-06)
(5.41101e-10 -8.58281e-08 -9.67016e-06)
(1.25035e-10 -8.4922e-08 -9.66973e-06)
(-7.27468e-11 -8.38872e-08 -9.6701e-06)
(2.24724e-11 -8.39833e-08 -9.66986e-06)
(-2.15065e-10 -8.50252e-08 -9.66994e-06)
(-2.04042e-10 -8.58659e-08 -9.67019e-06)
(-2.55926e-10 -8.51549e-08 -9.66968e-06)
(-5.95402e-10 -8.48778e-08 -9.66991e-06)
(-8.75478e-10 -8.51721e-08 -9.6699e-06)
(-1.04365e-09 -8.40317e-08 -9.67011e-06)
(-1.38021e-09 -8.48396e-08 -9.67001e-06)
(-1.76414e-09 -8.40243e-08 -9.67022e-06)
(-2.50926e-09 -8.49463e-08 -9.66992e-06)
(-6.5598e-09 -8.41935e-08 -9.66911e-06)
(-3.4359e-08 -8.51145e-08 -9.66739e-06)
(-2.22858e-07 -7.92474e-08 -9.74192e-06)
(-1.52101e-06 -6.57311e-08 -1.03509e-05)
(-1.32071e-05 -6.89356e-08 -6.21353e-06)
(1.3193e-05 -1.16701e-07 -6.21807e-06)
(1.51758e-06 -1.1357e-07 -1.03508e-05)
(2.20693e-07 -1.34607e-07 -9.74336e-06)
(3.36997e-08 -1.41669e-07 -9.66826e-06)
(6.40008e-09 -1.42646e-07 -9.67025e-06)
(2.69676e-09 -1.42844e-07 -9.67075e-06)
(1.78878e-09 -1.42907e-07 -9.67089e-06)
(1.38885e-09 -1.428e-07 -9.67086e-06)
(1.13175e-09 -1.42762e-07 -9.67082e-06)
(8.15769e-10 -1.4291e-07 -9.67047e-06)
(4.03807e-10 -1.4283e-07 -9.67073e-06)
(2.33454e-10 -1.42203e-07 -9.67088e-06)
(4.30526e-10 -1.42903e-07 -9.67117e-06)
(3.03709e-10 -1.42923e-07 -9.6706e-06)
(9.3379e-12 -1.42355e-07 -9.67093e-06)
(-5.17699e-11 -1.42546e-07 -9.67063e-06)
(-3.94074e-10 -1.43055e-07 -9.67071e-06)
(-2.18577e-10 -1.42953e-07 -9.67123e-06)
(-1.2988e-10 -1.43129e-07 -9.67065e-06)
(-5.91129e-10 -1.42894e-07 -9.67068e-06)
(-8.26836e-10 -1.43436e-07 -9.67077e-06)
(-1.01008e-09 -1.42563e-07 -9.67088e-06)
(-1.37848e-09 -1.42782e-07 -9.67077e-06)
(-1.77818e-09 -1.42384e-07 -9.67103e-06)
(-2.52837e-09 -1.42913e-07 -9.67069e-06)
(-6.48041e-09 -1.42638e-07 -9.66998e-06)
(-3.38573e-08 -1.41349e-07 -9.66846e-06)
(-2.20877e-07 -1.34065e-07 -9.74275e-06)
(-1.51756e-06 -1.12956e-07 -1.03511e-05)
(-1.31932e-05 -1.16732e-07 -6.21778e-06)
(1.3168e-05 -1.89011e-07 -6.22519e-06)
(1.5115e-06 -1.85514e-07 -1.03503e-05)
(2.18189e-07 -2.1877e-07 -9.74433e-06)
(3.31122e-08 -2.28312e-07 -9.66918e-06)
(6.13942e-09 -2.29871e-07 -9.67118e-06)
(2.5842e-09 -2.30989e-07 -9.67194e-06)
(1.81621e-09 -2.30901e-07 -9.67212e-06)
(1.41031e-09 -2.3073e-07 -9.67208e-06)
(1.15756e-09 -2.3071e-07 -9.672e-06)
(8.04956e-10 -2.30908e-07 -9.67159e-06)
(4.01418e-10 -2.30928e-07 -9.67191e-06)
(3.28989e-10 -2.30774e-07 -9.67218e-06)
(3.85512e-10 -2.30096e-07 -9.67206e-06)
(2.26655e-10 -2.30874e-07 -9.67188e-06)
(2.96104e-11 -2.30587e-07 -9.67199e-06)
(-9.46718e-11 -2.30778e-07 -9.67188e-06)
(-2.87119e-10 -2.31215e-07 -9.67203e-06)
(-2.16121e-10 -2.30067e-07 -9.67213e-06)
(-2.32177e-10 -2.31032e-07 -9.67198e-06)
(-6.23682e-10 -2.30912e-07 -9.6719e-06)
(-8.18225e-10 -2.31975e-07 -9.67233e-06)
(-9.52419e-10 -2.30966e-07 -9.6719e-06)
(-1.36274e-09 -2.30763e-07 -9.67198e-06)
(-1.79916e-09 -2.30538e-07 -9.67206e-06)
(-2.55686e-09 -2.30969e-07 -9.67189e-06)
(-6.24244e-09 -2.30989e-07 -9.67115e-06)
(-3.30889e-08 -2.289e-07 -9.6694e-06)
(-2.18191e-07 -2.17742e-07 -9.74388e-06)
(-1.51168e-06 -1.85172e-07 -1.03505e-05)
(-1.31684e-05 -1.90144e-07 -6.22511e-06)
(1.31246e-05 -3.04318e-07 -6.23742e-06)
(1.5016e-06 -2.99564e-07 -1.0349e-05)
(2.14382e-07 -3.48905e-07 -9.74585e-06)
(3.22303e-08 -3.64957e-07 -9.67099e-06)
(5.91356e-09 -3.67151e-07 -9.673e-06)
(2.55196e-09 -3.67967e-07 -9.67367e-06)
(1.87022e-09 -3.67595e-07 -9.67383e-06)
(1.43119e-09 -3.6739e-07 -9.67376e-06)
(1.17146e-09 -3.67397e-07 -9.67365e-06)
(7.79241e-10 -3.67595e-07 -9.67321e-06)
(3.71299e-10 -3.67798e-07 -9.67363e-06)
(3.65023e-10 -3.67953e-07 -9.67376e-06)
(3.73685e-10 -3.67376e-07 -9.67385e-06)
(2.05006e-10 -3.67621e-07 -9.67359e-06)
(4.15552e-11 -3.67389e-07 -9.67364e-06)
(-1.40259e-10 -3.67501e-07 -9.67364e-06)
(-2.28812e-10 -3.68289e-07 -9.67399e-06)
(-1.84064e-10 -3.67215e-07 -9.67392e-06)
(-2.77739e-10 -3.67684e-07 -9.67374e-06)
(-7.13548e-10 -3.67645e-07 -9.67359e-06)
(-8.42269e-10 -3.69627e-07 -9.67424e-06)
(-8.50038e-10 -3.68103e-07 -9.67357e-06)
(-1.32775e-09 -3.67457e-07 -9.67368e-06)
(-1.832e-09 -3.67308e-07 -9.67368e-06)
(-2.60298e-09 -3.67855e-07 -9.6736e-06)
(-6.11077e-09 -3.68139e-07 -9.67306e-06)
(-3.20618e-08 -3.65076e-07 -9.67112e-06)
(-2.14192e-07 -3.48773e-07 -9.74529e-06)
(-1.50192e-06 -2.9916e-07 -1.03494e-05)
(-1.3125e-05 -3.0511e-07 -6.23719e-06)
(1.30504e-05 -4.85838e-07 -6.25662e-06)
(1.4859e-06 -4.82135e-07 -1.03468e-05)
(2.0887e-07 -5.55219e-07 -9.74694e-06)
(3.07244e-08 -5.79307e-07 -9.67286e-06)
(5.67007e-09 -5.8216e-07 -9.6749e-06)
(2.57253e-09 -5.83032e-07 -9.67588e-06)
(1.95918e-09 -5.82135e-07 -9.67578e-06)
(1.43842e-09 -5.81971e-07 -9.67578e-06)
(1.16461e-09 -5.82044e-07 -9.67566e-06)
(7.36157e-10 -5.82209e-07 -9.6753e-06)
(3.3506e-10 -5.82691e-07 -9.67585e-06)
(3.83506e-10 -5.83109e-07 -9.67598e-06)
(3.73243e-10 -5.8239e-07 -9.67578e-06)
(2.10288e-10 -5.82374e-07 -9.67564e-06)
(6.93394e-11 -5.82033e-07 -9.67569e-06)
(-2.13698e-10 -5.82075e-07 -9.6757e-06)
(-1.99134e-10 -5.83526e-07 -9.67595e-06)
(-1.03265e-10 -5.82038e-07 -9.67579e-06)
(-3.01857e-10 -5.82247e-07 -9.67584e-06)
(-8.94625e-10 -5.82276e-07 -9.67562e-06)
(-8.89812e-10 -5.84035e-07 -9.67639e-06)
(-6.70644e-10 -5.83265e-07 -9.67583e-06)
(-1.27564e-09 -5.82048e-07 -9.67574e-06)
(-1.88473e-09 -5.81942e-07 -9.6757e-06)
(-2.67292e-09 -5.82828e-07 -9.67579e-06)
(-5.80265e-09 -5.83399e-07 -9.67502e-06)
(-3.05793e-08 -5.78914e-07 -9.67306e-06)
(-2.08733e-07 -5.55978e-07 -9.74683e-06)
(-1.48614e-06 -4.8164e-07 -1.0347e-05)
(-1.30505e-05 -4.86642e-07 -6.25678e-06)
(1.29259e-05 -7.73093e-07 -6.2881e-06)
(1.46149e-06 -7.76256e-07 -1.03426e-05)
(2.01264e-07 -8.84866e-07 -9.74894e-06)
(2.88353e-08 -9.17544e-07 -9.67573e-06)
(5.39421e-09 -9.21009e-07 -9.67772e-06)
(2.63952e-09 -9.22252e-07 -9.67915e-06)
(2.08492e-09 -9.20617e-07 -9.67845e-06)
(1.43095e-09 -9.20403e-07 -9.67861e-06)
(1.12903e-09 -9.20606e-07 -9.67857e-06)
(6.70075e-10 -9.20543e-07 -9.67848e-06)
(3.08979e-10 -9.21591e-07 -9.67908e-06)
(3.98771e-10 -9.22316e-07 -9.67936e-06)
(3.64796e-10 -9.21288e-07 -9.67877e-06)
(2.30089e-10 -9.2108e-07 -9.67854e-06)
(1.22358e-10 -9.20512e-07 -9.67854e-06)
(-3.38687e-10 -9.20465e-07 -9.67854e-06)
(-1.8483e-10 -9.21129e-07 -9.67888e-06)
(5.68219e-11 -9.20567e-07 -9.6786e-06)
(-3.12396e-10 -9.20612e-07 -9.6787e-06)
(-9.19085e-10 -9.20727e-07 -9.67848e-06)
(-9.47932e-10 -9.20913e-07 -9.67915e-06)
(-6.6623e-10 -9.22558e-07 -9.67927e-06)
(-1.21405e-09 -9.20468e-07 -9.67859e-06)
(-1.96116e-09 -9.20399e-07 -9.67856e-06)
(-2.79467e-09 -9.21891e-07 -9.67906e-06)
(-5.56794e-09 -9.21008e-07 -9.67787e-06)
(-2.86463e-08 -9.1788e-07 -9.67598e-06)
(-2.01084e-07 -8.84928e-07 -9.74889e-06)
(-1.4617e-06 -7.75757e-07 -1.03424e-05)
(-1.29255e-05 -7.742e-07 -6.28868e-06)
(1.27248e-05 -1.22834e-06 -6.34357e-06)
(1.42578e-06 -1.25137e-06 -1.03402e-05)
(1.90977e-07 -1.40762e-06 -9.75732e-06)
(2.6472e-08 -1.45184e-06 -9.68533e-06)
(5.08296e-09 -1.4558e-06 -9.6871e-06)
(2.71976e-09 -1.45776e-06 -9.68864e-06)
(2.22943e-09 -1.45486e-06 -9.68801e-06)
(1.46064e-09 -1.45472e-06 -9.688e-06)
(1.10661e-09 -1.45516e-06 -9.68821e-06)
(5.67801e-10 -1.4546e-06 -9.68797e-06)
(2.51393e-10 -1.45651e-06 -9.68824e-06)
(4.19e-10 -1.4577e-06 -9.6887e-06)
(3.46422e-10 -1.45624e-06 -9.6885e-06)
(2.54354e-10 -1.45581e-06 -9.68805e-06)
(1.95714e-10 -1.4549e-06 -9.68787e-06)
(-2.30597e-10 -1.45476e-06 -9.68785e-06)
(-1.64781e-10 -1.45482e-06 -9.68813e-06)
(2.93952e-11 -1.45487e-06 -9.68795e-06)
(-3.14091e-10 -1.45473e-06 -9.68782e-06)
(-8.07429e-10 -1.45508e-06 -9.68787e-06)
(-1.02153e-09 -1.45549e-06 -9.68872e-06)
(-8.34191e-10 -1.45823e-06 -9.68889e-06)
(-1.14007e-09 -1.45474e-06 -9.68791e-06)
(-2.05568e-09 -1.45472e-06 -9.68793e-06)
(-2.71817e-09 -1.45715e-06 -9.6885e-06)
(-5.35828e-09 -1.45464e-06 -9.68677e-06)
(-2.64319e-08 -1.4507e-06 -9.68517e-06)
(-1.90754e-07 -1.40726e-06 -9.75703e-06)
(-1.42602e-06 -1.25079e-06 -1.03399e-05)
(-1.27239e-05 -1.22991e-06 -6.34371e-06)
(1.24205e-05 -1.94919e-06 -6.45389e-06)
(1.37772e-06 -2.01611e-06 -1.03624e-05)
(1.77589e-07 -2.2344e-06 -9.79662e-06)
(2.35109e-08 -2.29376e-06 -9.72664e-06)
(4.7492e-09 -2.29791e-06 -9.72816e-06)
(2.86599e-09 -2.29872e-06 -9.73013e-06)
(2.4419e-09 -2.29602e-06 -9.72906e-06)
(1.50966e-09 -2.29624e-06 -9.72918e-06)
(1.09846e-09 -2.29714e-06 -9.72988e-06)
(3.62418e-10 -2.29571e-06 -9.72875e-06)
(9.70807e-11 -2.29648e-06 -9.72897e-06)
(4.70772e-10 -2.2984e-06 -9.72874e-06)
(3.75121e-10 -2.29854e-06 -9.72916e-06)
(2.8331e-10 -2.29798e-06 -9.72951e-06)
(2.67513e-10 -2.29654e-06 -9.72888e-06)
(-1.51016e-10 -2.29631e-06 -9.72885e-06)
(-1.23528e-10 -2.2976e-06 -9.72998e-06)