/*--------------------------------*- C++ -*----------------------------------*\
| =========                 |                                                 |
| \\      /  F ield         | OpenFOAM: The Open Source CFD Toolbox           |
|  \\    /   O peration     | Version:  2106                                  |
|   \\  /    A nd           | Website:  www.openfoam.com                      |
|    \\/     M anipulation  |                                                 |
\*---------------------------------------------------------------------------*/
FoamFile
{
    version     2.0;
    format      ascii;
    arch        "LSB;label=32;scalar=64";
    class       volSymmTensorField;
    location    "557";
    object      epsilon;
}
// * * * * * * * * * * * * * * * * * * * * * * * * * * * * * * * * * * * * * //

dimensions      [0 0 0 0 0 0 0];

internalField   nonuniform List<symmTensor> 
9000
(
(-0.0855824 -0.000263617 0.048164 -0.147119 0.0614089 -0.0253652)
(-0.0167736 0.00053775 0.00938528 -0.156475 0.0651292 -0.06975)
(-0.00192932 0.00033572 0.00256726 -0.166385 0.0691565 -0.059517)
(-0.000321075 5.06202e-05 0.000453241 -0.167997 0.0700449 -0.0573965)
(-5.53931e-05 -7.93611e-06 4.13087e-05 -0.168078 0.0700715 -0.0574083)
(-4.00245e-06 -2.03834e-06 1.87708e-05 -0.167897 0.0698602 -0.0576813)
(-1.43001e-06 -2.39885e-08 2.60001e-05 -0.168021 0.0700239 -0.0575658)
(-1.5602e-08 -5.91257e-06 7.82986e-06 -0.16789 0.0698616 -0.0576805)
(-9.45578e-07 6.45382e-06 3.11956e-05 -0.167888 0.0698584 -0.0576874)
(-6.55896e-06 6.63977e-06 -7.56938e-06 -0.168062 0.070046 -0.0574687)
(2.40284e-06 -6.25133e-06 -4.91644e-05 -0.167944 0.069929 -0.0575947)
(7.8353e-06 -5.35363e-07 3.94366e-05 -0.167763 0.0697387 -0.0578337)
(-4.57443e-06 5.4462e-06 5.86149e-05 -0.168052 0.0700345 -0.0574957)
(-4.32473e-06 8.2413e-07 -3.0313e-05 -0.168069 0.0700433 -0.0574844)
(3.44474e-06 8.61061e-07 1.8313e-06 -0.167956 0.069938 -0.0575785)
(-2.61473e-06 -1.19015e-06 3.05173e-05 -0.168065 0.070048 -0.0574696)
(-2.14918e-06 3.35059e-07 -3.61891e-05 -0.168067 0.0700422 -0.0574895)
(2.83944e-08 7.55926e-07 -2.90773e-06 -0.16796 0.0699399 -0.0575703)
(-2.16021e-06 -6.66147e-06 -2.44565e-05 -0.168054 0.0700396 -0.0574846)
(4.62129e-06 -6.37519e-06 -2.6363e-05 -0.167774 0.0697478 -0.0577988)
(2.72492e-06 5.81042e-06 3.97838e-05 -0.167875 0.0698518 -0.0577124)
(-5.71261e-06 6.52729e-06 6.75317e-06 -0.168061 0.0700395 -0.0574841)
(-3.5324e-06 -5.88585e-06 -3.2174e-05 -0.168065 0.0700484 -0.0574668)
(1.00411e-08 -8.1451e-07 -2.7006e-05 -0.167901 0.0698657 -0.0576676)
(-7.86634e-06 1.65112e-06 -2.51923e-05 -0.168052 0.0700337 -0.0574943)
(-5.39485e-05 1.93335e-06 -9.46398e-05 -0.167912 0.0698907 -0.0576047)
(-0.000314536 -4.56783e-05 -0.000441603 -0.167867 0.0699203 -0.0575383)
(-0.00192992 -0.000335508 -0.00252964 -0.166381 0.0691451 -0.0595429)
(-0.0167764 -0.000536811 -0.00938364 -0.156474 0.0651282 -0.0697513)
(-0.0855817 0.000263549 -0.048165 -0.147118 0.0614045 -0.0253705)
(-0.0724043 -1.1347e-05 0.046481 -0.0980736 0.0681848 -0.128987)
(-0.0163977 0.000682458 0.00802658 -0.103197 0.0717493 -0.175004)
(-0.00180225 0.000432643 0.00154417 -0.109234 0.0762348 -0.171321)
(-0.000206457 7.0941e-05 0.000231124 -0.1104 0.0773923 -0.170638)
(-2.74239e-05 -6.32013e-06 3.37505e-05 -0.110422 0.0774253 -0.170684)
(-4.58344e-06 -3.25134e-06 3.22696e-05 -0.110202 0.0773588 -0.170699)
(-2.18487e-06 5.21095e-07 2.62215e-05 -0.11037 0.0773702 -0.17071)
(-1.53769e-06 -1.71345e-06 -2.64682e-06 -0.110179 0.0773639 -0.170696)
(-7.76236e-07 2.05873e-06 3.40533e-05 -0.11018 0.077357 -0.170702)
(-1.20582e-06 7.23173e-06 3.36237e-05 -0.110395 0.0773834 -0.170706)
(-4.73394e-07 3.33862e-06 -1.16809e-05 -0.110297 0.0775586 -0.170676)
(7.2589e-08 -5.87769e-06 4.02445e-06 -0.110077 0.0775234 -0.170666)
(-1.06481e-06 -6.99644e-06 2.34839e-05 -0.110394 0.0773663 -0.17071)
(-7.66958e-07 6.2955e-06 1.67799e-06 -0.110371 0.077231 -0.17069)
(1.42024e-07 3.74935e-06 -1.47805e-06 -0.11031 0.0775721 -0.170679)
(-3.58191e-07 -9.01869e-06 -1.99574e-06 -0.110398 0.0773881 -0.17071)
(-2.21701e-07 5.16144e-06 -6.6337e-07 -0.110369 0.0772299 -0.170693)
(-1.54407e-07 3.81088e-06 -3.23501e-06 -0.110314 0.0775732 -0.170675)
(-7.54985e-07 -2.1411e-06 -2.42882e-05 -0.110385 0.0773739 -0.17071)
(-8.10569e-07 -1.91667e-06 -2.75998e-05 -0.110084 0.0775436 -0.170665)
(-8.20508e-07 -4.1554e-06 4.89126e-06 -0.110164 0.0773447 -0.17069)
(-9.70292e-07 1.91775e-06 5.03843e-06 -0.110405 0.0773732 -0.170713)
(-1.15889e-06 -1.09179e-06 -3.76884e-05 -0.110397 0.0773882 -0.170708)
(-1.64999e-06 -1.74063e-06 -2.33279e-05 -0.110196 0.0773665 -0.170693)
(-5.2677e-06 3.41762e-06 -2.99416e-05 -0.110398 0.0773631 -0.170711)
(-2.77973e-05 9.92359e-06 -5.22207e-05 -0.110214 0.0774086 -0.170669)
(-0.00020623 -7.3452e-05 -0.000210782 -0.110289 0.0775556 -0.170607)
(-0.00180239 -0.000437632 -0.00154618 -0.109198 0.0760747 -0.171319)
(-0.0163977 -0.000679127 -0.00802918 -0.103195 0.0717472 -0.175003)
(-0.0724032 1.1329e-05 -0.0464815 -0.0980773 0.0681746 -0.128987)
(-0.0763058 0.0011727 0.0467479 -0.0575549 0.0581672 -0.153402)
(-0.0165237 0.000871349 0.00786649 -0.0602172 0.0606482 -0.201966)
(-0.00180452 0.000519464 0.00136958 -0.063366 0.0647183 -0.199929)
(-0.000186632 9.81893e-05 0.000170855 -0.064102 0.0658949 -0.199628)
(-1.86023e-05 -8.79724e-07 5.74154e-05 -0.0641041 0.0659381 -0.199687)
(-4.77929e-06 -5.13478e-06 3.56374e-05 -0.0639985 0.0660479 -0.199648)
(-2.10841e-06 2.2029e-06 2.53159e-05 -0.0640746 0.0658774 -0.199696)
(-2.3427e-06 4.48645e-06 2.20281e-05 -0.0639922 0.0661458 -0.199667)
(-1.52812e-06 -2.86002e-06 7.72497e-06 -0.0640007 0.0661385 -0.19967)
(1.17809e-06 -2.76154e-06 9.0527e-06 -0.064077 0.0658989 -0.199701)
(-7.63001e-07 3.24649e-06 1.82505e-05 -0.0640656 0.0658739 -0.199687)
(-3.43805e-06 -2.6871e-06 4.43178e-06 -0.0639777 0.0661206 -0.199648)
(-3.22281e-07 -3.45577e-06 -2.02219e-05 -0.0640567 0.0657891 -0.199656)
(1.39316e-06 3.82747e-06 4.58208e-07 -0.0640085 0.065902 -0.199682)
(-9.19718e-07 5.17221e-07 1.2061e-05 -0.0640706 0.06589 -0.199691)
(-1.02405e-07 -1.07393e-06 -1.69417e-05 -0.0640789 0.0659051 -0.199702)
(1.06372e-06 4.55616e-07 3.51589e-07 -0.0640081 0.0659006 -0.199685)
(3.20484e-07 2.91933e-07 1.18012e-05 -0.0640726 0.0658893 -0.199691)
(-4.07754e-07 2.34454e-06 3.1731e-06 -0.0640708 0.0658891 -0.1997)
(-3.13229e-06 2.8085e-06 -5.54534e-07 -0.0639816 0.0661254 -0.199653)
(-2.75863e-06 -5.52236e-06 -2.12017e-05 -0.0639828 0.0661399 -0.199657)
(1.05073e-06 -2.55595e-06 -2.32325e-05 -0.0640676 0.0657977 -0.199683)
(7.24489e-08 5.08602e-06 -1.30137e-05 -0.064077 0.0659056 -0.199703)
(-2.45471e-06 -3.97612e-06 -2.13872e-05 -0.0640112 0.0661452 -0.199667)
(-4.12019e-06 4.03735e-06 -3.06912e-05 -0.0640717 0.0657874 -0.199676)
(-2.03014e-05 4.62555e-06 -4.73775e-05 -0.0640239 0.0661863 -0.19965)
(-0.000188824 -0.000102346 -0.000190358 -0.0640792 0.0658577 -0.19961)
(-0.00180358 -0.000519216 -0.00137648 -0.063293 0.0646988 -0.199916)
(-0.0165224 -0.000871895 -0.00785597 -0.0602151 0.0606463 -0.201962)
(-0.0763029 -0.00117247 -0.0467476 -0.0575642 0.0581543 -0.153403)
(-0.081879 0.00181544 0.0483708 -0.0351672 0.0409106 -0.154291)
(-0.0170829 0.00088016 0.00813914 -0.0372331 0.0422678 -0.205377)
(-0.00186643 0.000494889 0.00148926 -0.0391079 0.0456091 -0.203493)
(-0.00020653 0.000100413 0.000191415 -0.0396308 0.0464873 -0.203203)
(-2.03752e-05 -7.66075e-07 4.25614e-05 -0.0396401 0.0465337 -0.203268)
(-3.89965e-06 -6.73615e-06 3.61672e-05 -0.0395811 0.0464305 -0.203235)
(-2.23671e-06 1.2875e-06 3.37758e-05 -0.0396054 0.0464183 -0.203264)
(-2.20533e-06 1.54597e-06 1.89817e-05 -0.0396226 0.0465028 -0.203286)
(-1.10702e-06 5.00965e-07 1.22615e-05 -0.0396169 0.0464293 -0.203248)
(7.39061e-07 3.55073e-07 1.14286e-05 -0.039615 0.0465026 -0.20328)
(-1.279e-06 -1.96038e-06 1.44753e-05 -0.0396101 0.0464894 -0.203276)
(-3.00303e-06 7.66734e-07 -4.84438e-06 -0.0396146 0.0464808 -0.203253)
(2.46037e-07 5.93253e-06 -3.85151e-06 -0.0395694 0.0465038 -0.203259)
(9.40866e-07 1.01642e-06 1.03041e-05 -0.0395905 0.0466685 -0.203285)
(-1.06434e-06 -3.4822e-06 -7.55622e-07 -0.0396079 0.0465036 -0.203279)
(7.41925e-08 4.09064e-06 -3.73862e-06 -0.0396164 0.0465092 -0.203283)
(8.67657e-07 -6.1435e-07 -6.36195e-08 -0.0395912 0.0466669 -0.203288)
(3.26925e-08 -4.22247e-06 -1.21387e-08 -0.0396081 0.0465031 -0.20328)
(-6.7771e-07 -1.55655e-06 -1.06928e-06 -0.0396118 0.0464936 -0.203257)
(-2.77884e-06 -7.46289e-07 -5.35642e-06 -0.0396163 0.0464914 -0.203279)
(-2.25433e-06 1.11704e-06 -2.60486e-05 -0.0396181 0.0464929 -0.20326)
(9.0982e-07 1.56584e-06 -1.96601e-05 -0.0395801 0.0464974 -0.203252)
(-3.78699e-07 -1.274e-06 -6.87705e-06 -0.0396124 0.0465112 -0.203284)
(-2.33442e-06 -3.84604e-06 -3.07558e-05 -0.0396217 0.0464332 -0.20327)
(-3.24203e-06 4.85372e-06 -3.11402e-05 -0.0395745 0.0464209 -0.203228)
(-2.16038e-05 1.87276e-07 -3.61944e-05 -0.0396477 0.0465326 -0.203264)
(-0.00020865 -9.76746e-05 -0.000193109 -0.0396172 0.0464619 -0.203192)
(-0.00186629 -0.000492467 -0.0014969 -0.039084 0.0457515 -0.203466)
(-0.0170809 -0.000885521 -0.00814281 -0.0372316 0.0422663 -0.205375)
(-0.0818832 -0.00181474 -0.0483688 -0.0351578 0.0408337 -0.154277)
(-0.0860596 0.00177846 0.0503712 -0.0220586 0.0263851 -0.152284)
(-0.0177676 0.000770665 0.00855295 -0.0235784 0.0267745 -0.205728)
(-0.00194995 0.000412424 0.00166047 -0.0249321 0.0293922 -0.203766)
(-0.000234396 8.62716e-05 0.000211788 -0.0252872 0.029961 -0.203435)
(-2.56931e-05 5.38558e-06 4.16051e-05 -0.0252883 0.029951 -0.203495)
(-3.58124e-06 -4.71754e-06 2.47342e-05 -0.0252442 0.0300954 -0.203526)
(-1.86841e-06 -2.82194e-06 3.26416e-05 -0.0252448 0.0299186 -0.203503)
(-1.95814e-06 2.23871e-06 1.78267e-05 -0.0252824 0.0299935 -0.203528)
(-6.1374e-07 -1.53365e-07 1.34837e-05 -0.0252562 0.0299948 -0.203516)
(5.42638e-08 -2.18591e-06 2.08795e-05 -0.0252853 0.0299833 -0.203502)
(-1.47138e-06 -2.04536e-06 1.20567e-05 -0.0252672 0.0299227 -0.203506)
(-2.21512e-06 3.98168e-06 3.35228e-06 -0.0252829 0.0299839 -0.203511)
(7.23707e-08 4.91038e-06 -2.89089e-06 -0.0252728 0.0300815 -0.20353)
(6.29028e-07 -1.22962e-06 2.12432e-06 -0.0252999 0.0300093 -0.203525)
(-9.83096e-07 -2.14652e-06 7.75889e-07 -0.0252775 0.0299871 -0.20352)
(-7.25204e-08 2.53131e-06 -4.45267e-06 -0.0252878 0.0299885 -0.203521)
(8.2548e-07 -3.36732e-07 -7.03925e-07 -0.0253005 0.0300079 -0.203529)
(-2.3601e-07 -3.43589e-06 1.31086e-06 -0.0252771 0.0299867 -0.203521)
(-1.00396e-06 -1.71067e-06 -3.00933e-06 -0.0252849 0.0299818 -0.203492)
(-1.92485e-06 -1.02472e-07 -7.27206e-06 -0.0252817 0.0299861 -0.203523)
(-1.55944e-06 2.74646e-06 -1.43569e-05 -0.0252822 0.0299918 -0.203518)
(-6.87989e-08 1.86948e-06 -1.72934e-05 -0.0252603 0.0300319 -0.203519)
(-1.0043e-06 -1.16528e-06 -2.53077e-05 -0.0252789 0.0299915 -0.203525)
(-1.50605e-06 -1.00474e-06 -3.06979e-05 -0.0252636 0.0299905 -0.203517)
(-2.91826e-06 2.48948e-06 -2.10424e-05 -0.0252402 0.0300232 -0.203506)
(-2.66605e-05 -4.79988e-06 -3.67758e-05 -0.025303 0.0300105 -0.203503)
(-0.000236009 -8.64051e-05 -0.000213839 -0.0252856 0.0299432 -0.203423)
(-0.00195003 -0.000409567 -0.00166512 -0.0249491 0.029406 -0.203761)
(-0.0177646 -0.000771795 -0.0085655 -0.0235778 0.0267729 -0.205727)
(-0.0860665 -0.00177647 -0.0503587 -0.0220267 0.0263753 -0.152275)
(-0.0887442 0.0013983 0.0521196 -0.0139509 0.0164676 -0.151257)
(-0.0183645 0.000609106 0.00895411 -0.0148828 0.0163785 -0.206542)
(-0.00203145 0.000319836 0.001813 -0.0159397 0.0181859 -0.204479)
(-0.000259175 7.36882e-05 0.0002346 -0.0161928 0.0187144 -0.204177)
(-3.10667e-05 7.86534e-06 4.94099e-05 -0.0161815 0.0187552 -0.204246)
(-4.08404e-06 -2.50006e-06 3.08041e-05 -0.0161991 0.0188345 -0.204285)
(-1.50991e-06 -3.85166e-06 2.5099e-05 -0.016154 0.0187606 -0.204265)
(-1.74601e-06 1.53487e-06 2.4742e-05 -0.0161941 0.0187484 -0.204272)
(-1.04151e-06 -1.66699e-06 1.3404e-05 -0.0161866 0.0188195 -0.204284)
(-2.24601e-07 -2.85418e-06 5.17282e-06 -0.0161865 0.018697 -0.204258)
(-9.97622e-07 -1.62205e-06 1.08109e-05 -0.0161658 0.0187374 -0.204261)
(-1.56824e-06 1.4478e-07 1.06677e-05 -0.0161884 0.018695 -0.204234)
(2.91011e-08 4.83332e-06 -9.13223e-07 -0.0162061 0.0187063 -0.20426)
(2.40099e-07 8.49014e-07 3.31256e-06 -0.0162064 0.0187616 -0.20427)
(-1.01264e-06 -2.54841e-06 9.30579e-07 -0.0161929 0.0187436 -0.204265)
(-1.11765e-07 1.84675e-06 -3.66651e-06 -0.0161904 0.0186971 -0.204256)
(5.18403e-07 8.10053e-07 -1.37029e-06 -0.0162064 0.0187598 -0.204272)
(-4.26219e-07 -4.24181e-06 -1.25968e-07 -0.0161922 0.0187443 -0.204268)
(-8.49327e-07 -1.48223e-06 -4.13146e-06 -0.0161898 0.0186949 -0.204236)
(-1.5963e-06 1.34331e-06 -7.29925e-06 -0.0161989 0.0187427 -0.204267)
(-1.23039e-06 2.96396e-06 -2.15766e-05 -0.0162019 0.0187457 -0.204248)
(9.84777e-08 1.87718e-06 -1.60717e-05 -0.0161829 0.0187554 -0.20427)
(-1.47163e-06 -4.2657e-07 -8.33555e-06 -0.0161928 0.0187472 -0.204273)
(-1.76446e-06 6.63259e-07 -3.18973e-05 -0.0161838 0.0187725 -0.204251)
(-2.94841e-06 4.25508e-07 -2.86473e-05 -0.0161751 0.0187746 -0.204265)
(-3.20038e-05 -8.26052e-06 -3.71217e-05 -0.0162123 0.0187568 -0.204246)
(-0.000260572 -7.2345e-05 -0.000245916 -0.0161885 0.0186556 -0.204135)
(-0.00203103 -0.000316567 -0.00181534 -0.0159482 0.0181948 -0.204496)
(-0.0183613 -0.000607667 -0.00895668 -0.0148826 0.0163771 -0.206539)
(-0.0887433 -0.00139735 -0.0521062 -0.0139384 0.016533 -0.151261)
(-0.0904015 0.000964898 0.0534038 -0.00882108 0.0102391 -0.150978)
(-0.0188008 0.00044818 0.00928483 -0.00929896 0.00999166 -0.207534)
(-0.00209833 0.000237807 0.00192782 -0.0101004 0.0113135 -0.20547)
(-0.000278753 5.82641e-05 0.000275486 -0.0103129 0.0116678 -0.205149)
(-3.63825e-05 6.77838e-06 5.22669e-05 -0.0103203 0.0117615 -0.205217)
(-4.64277e-06 -1.00398e-06 2.17168e-05 -0.0103376 0.0117189 -0.205249)
(-1.13503e-06 -2.69159e-06 2.48785e-05 -0.0103016 0.0117582 -0.205235)
(-1.80002e-06 -1.38257e-06 2.43019e-05 -0.010319 0.0116983 -0.205247)
(-9.95419e-07 -2.51107e-07 5.60192e-06 -0.0103286 0.0117067 -0.20525)
(-2.77727e-07 -1.87967e-07 1.22237e-05 -0.0102971 0.0116963 -0.205244)
(-1.35973e-06 -1.75718e-06 9.3704e-06 -0.0103072 0.0117503 -0.205252)
(-7.92085e-07 -1.74696e-06 -3.52805e-06 -0.0103024 0.0116943 -0.205234)
(6.14496e-07 2.88264e-06 8.77582e-06 -0.0103032 0.0116624 -0.20523)
(-4.85033e-07 5.22784e-07 1.05687e-05 -0.0103258 0.0117068 -0.205243)
(-1.14823e-06 -9.05894e-07 -6.72542e-06 -0.0103186 0.0116951 -0.205242)
(2.06392e-07 1.43149e-06 -2.71854e-06 -0.0103002 0.0116957 -0.205239)
(-6.59185e-08 -3.88174e-07 5.69125e-06 -0.0103257 0.0117053 -0.205244)
(-7.15179e-07 -2.69193e-06 -9.66939e-06 -0.010318 0.0116958 -0.205243)
(-2.39237e-07 -1.93041e-06 -4.6156e-06 -0.010304 0.0116936 -0.20524)
(-1.05135e-06 -8.67743e-07 6.81567e-07 -0.0103145 0.0116522 -0.205233)
(-1.09343e-06 4.81638e-06 -1.32663e-05 -0.0103214 0.0116578 -0.205216)
(-5.99936e-07 2.98667e-06 -1.47619e-05 -0.0103189 0.0117642 -0.205257)
(-1.82142e-06 -1.3376e-06 -2.37786e-05 -0.0103182 0.0116988 -0.205248)
(-1.22394e-06 2.01145e-06 -3.17996e-05 -0.0103106 0.0117078 -0.205241)
(-3.53734e-06 -1.36359e-06 -2.00391e-05 -0.0103061 0.011727 -0.205241)
(-3.68473e-05 -8.78663e-06 -4.73301e-05 -0.0103226 0.0116602 -0.20521)
(-0.00027958 -5.41041e-05 -0.000278187 -0.010301 0.0116591 -0.205114)
(-0.00209822 -0.000235708 -0.0019239 -0.0101058 0.011317 -0.205465)
(-0.0187988 -0.000447731 -0.00928768 -0.00930009 0.00998954 -0.207528)
(-0.0903967 -0.000966195 -0.0533982 -0.00882799 0.0102509 -0.150982)
(-0.0914203 0.000613024 0.0542532 -0.00556911 0.00639943 -0.150953)
(-0.0190872 0.000311171 0.00954753 -0.00576983 0.00614841 -0.208325)
(-0.00214855 0.000172224 0.00201555 -0.00637978 0.00711451 -0.206271)
(-0.000293564 4.17061e-05 0.000287566 -0.00653825 0.00732529 -0.205942)
(-3.98411e-05 5.43569e-06 5.4532e-05 -0.00655977 0.00736305 -0.206009)
(-5.22691e-06 1.05955e-06 2.77845e-05 -0.00655848 0.00736538 -0.206043)
(-1.31475e-06 -1.94338e-06 2.31919e-05 -0.0065528 0.00741097 -0.206052)
(-1.4767e-06 -2.09654e-06 1.76097e-05 -0.00654637 0.0073515 -0.206045)
(-8.58733e-07 1.55693e-06 1.27552e-05 -0.00655206 0.00735801 -0.206046)
(-6.59023e-07 -2.60017e-07 1.15536e-05 -0.00653883 0.0074009 -0.20605)
(-1.36795e-06 -2.22133e-06 7.96582e-06 -0.00655018 0.00735551 -0.206043)
(-4.1526e-07 1.40322e-06 -3.28191e-06 -0.00653436 0.00736113 -0.20604)
(6.64255e-07 1.17099e-06 3.24583e-06 -0.00652772 0.00740493 -0.206042)
(-5.10049e-07 -2.37115e-06 1.02707e-05 -0.0065498 0.00735665 -0.20604)
(-1.03166e-06 9.3306e-07 8.1588e-08 -0.0065472 0.00734867 -0.206041)
(-1.03831e-07 1.17702e-06 -1.92966e-06 -0.00654013 0.00739963 -0.206047)
(-2.95012e-07 -1.95493e-06 -1.62078e-06 -0.00654958 0.00735528 -0.206042)
(-7.60849e-07 -1.31006e-06 -3.67479e-06 -0.00654574 0.00734979 -0.206041)
(-4.82573e-07 -4.3846e-07 -1.2028e-05 -0.00653944 0.00735971 -0.206041)
(-4.02624e-07 -1.24578e-06 -1.39776e-05 -0.00653004 0.00734768 -0.206035)
(-2.96003e-07 2.48667e-06 -4.83465e-06 -0.00652651 0.00731323 -0.206031)
(-9.31048e-07 2.30971e-06 -6.09754e-06 -0.00655715 0.00736366 -0.206046)
(-2.15243e-06 8.82604e-07 -1.70461e-05 -0.00654587 0.00735264 -0.206046)
(-1.56527e-06 3.68915e-06 -3.11169e-05 -0.00654621 0.00740874 -0.206052)
(-4.21152e-06 -1.75138e-06 -3.37584e-05 -0.00654202 0.00741709 -0.206044)
(-3.96467e-05 -9.22727e-06 -4.39472e-05 -0.0065342 0.00735292 -0.206011)
(-0.000294124 -4.02021e-05 -0.000281013 -0.00653299 0.00732868 -0.205934)
(-0.0021489 -0.000170867 -0.00201746 -0.00638403 0.00711502 -0.206263)
(-0.0190862 -0.000310628 -0.00955149 -0.00577216 0.00614708 -0.2083)
(-0.0914169 -0.000614448 -0.0542505 -0.00557343 0.00640845 -0.150958)
(-0.0920476 0.000369917 0.0547795 -0.00351618 0.00401495 -0.150977)
(-0.0192626 0.00020467 0.00972461 -0.0035751 0.00381569 -0.208848)
(-0.0021827 0.000122081 0.00208061 -0.00402857 0.00444208 -0.206796)
(-0.000304608 3.07291e-05 0.000301919 -0.00414001 0.00462405 -0.206479)
(-4.24044e-05 4.30072e-06 5.53442e-05 -0.00415766 0.00465243 -0.206561)
(-5.70266e-06 9.13906e-07 2.77864e-05 -0.00415615 0.00465345 -0.206581)
(-1.44948e-06 -1.28123e-06 2.22662e-05 -0.00416137 0.00465784 -0.206586)
(-1.24405e-06 -1.25197e-06 1.74485e-05 -0.00414869 0.00464557 -0.206585)
(-8.20824e-07 8.74383e-07 1.32701e-05 -0.00415168 0.00464898 -0.206584)
(-1.05115e-06 -2.27204e-07 1.14157e-05 -0.00415511 0.00465304 -0.20657)
(-1.08444e-06 -5.78521e-07 -7.29578e-08 -0.00415104 0.00464974 -0.206581)
(1.28013e-07 2.36781e-06 3.655e-06 -0.00413951 0.00465161 -0.206577)
(1.39019e-07 8.00306e-11 1.0839e-05 -0.00415172 0.00469825 -0.206586)
(-7.04151e-07 -3.41137e-06 2.83977e-06 -0.00415045 0.00464912 -0.20658)
(-6.27507e-07 3.38504e-07 1.39739e-07 -0.00415269 0.0046433 -0.206581)
(-2.74313e-07 1.2101e-06 -1.29274e-06 -0.00415488 0.00465212 -0.20657)
(-6.65841e-07 -1.20343e-06 -2.14926e-06 -0.00414991 0.00464817 -0.206582)
(-5.24444e-07 -1.1061e-06 -1.07763e-05 -0.00414888 0.00464402 -0.206582)
(-1.22702e-07 1.03498e-06 -5.27973e-06 -0.00413666 0.00461566 -0.206557)
(-4.65758e-07 1.77962e-06 -7.69716e-06 -0.00414687 0.00468702 -0.206583)
(-2.38959e-07 5.64818e-07 -1.0392e-05 -0.0041299 0.00469093 -0.206584)
(-9.29515e-07 -7.29667e-07 -5.1297e-06 -0.0041551 0.00465445 -0.206583)
(-1.95782e-06 5.92166e-07 -1.71829e-05 -0.00414835 0.00464707 -0.206585)
(-1.52295e-06 3.70891e-06 -2.32231e-05 -0.00415853 0.00465642 -0.206585)
(-5.47328e-06 2.34519e-07 -2.7082e-05 -0.00416108 0.00470532 -0.206584)
(-4.24581e-05 -8.44954e-06 -6.08738e-05 -0.00414623 0.00469022 -0.206561)
(-0.000304317 -3.17858e-05 -0.000302038 -0.00412946 0.00458758 -0.206464)
(-0.00218288 -0.000120955 -0.00207463 -0.00403137 0.00444074 -0.206788)
(-0.0192627 -0.000203768 -0.0097265 -0.00357587 0.00381287 -0.208843)
(-0.0920464 -0.000370848 -0.0547791 -0.00351683 0.00402146 -0.15098)
(-0.0924332 0.000216845 0.055093 -0.00222669 0.00251785 -0.151)
(-0.0193656 0.000130196 0.00984014 -0.00222328 0.0023776 -0.209169)
(-0.00220449 8.45641e-05 0.00212729 -0.0025419 0.00279309 -0.207126)
(-0.000312581 2.20023e-05 0.000312555 -0.00262691 0.00292146 -0.206815)
(-4.43128e-05 3.2445e-06 5.77965e-05 -0.00264495 0.00294304 -0.206889)
(-6.10772e-06 1.04693e-06 2.80598e-05 -0.00264026 0.00294262 -0.20692)
(-1.58512e-06 -7.79491e-07 2.16591e-05 -0.00264287 0.00294595 -0.206923)
(-1.13918e-06 -8.29054e-07 1.68662e-05 -0.00263536 0.00293813 -0.206924)
(-7.89766e-07 2.61651e-07 1.32531e-05 -0.00263675 0.00294005 -0.206923)
(-9.48629e-07 -2.01e-07 1.11902e-05 -0.00263959 0.00294456 -0.206911)
(-8.99659e-07 1.15675e-06 6.48015e-06 -0.00263709 0.002941 -0.206919)
(-9.10766e-08 1.46821e-06 4.22392e-06 -0.00263674 0.0029834 -0.206922)
(-2.42436e-07 -1.24994e-06 4.23517e-06 -0.00264603 0.00294992 -0.206919)
(-6.13299e-07 -3.08902e-06 1.92718e-06 -0.00263629 0.00294101 -0.20692)
(-2.49829e-07 3.73136e-08 -1.04488e-07 -0.00263233 0.00290163 -0.206915)
(-3.08781e-07 1.80071e-06 -7.42078e-07 -0.00263816 0.00294308 -0.206922)
(-8.8662e-07 -8.92606e-07 -2.34481e-06 -0.00263557 0.0029407 -0.206922)
(-4.35718e-07 1.21465e-06 -1.13404e-05 -0.00263849 0.00293732 -0.206921)
(1.97646e-07 1.42224e-08 -5.02971e-06 -0.00262054 0.00298325 -0.20692)
(-3.8295e-07 2.51397e-07 -4.82752e-07 -0.00263753 0.0029063 -0.206914)
(-6.1545e-07 1.34091e-06 -9.63701e-06 -0.00264149 0.00298481 -0.206925)
(-1.01059e-06 -1.46348e-06 -1.16252e-05 -0.00264015 0.00294365 -0.20692)
(-1.59655e-06 4.16338e-07 -1.69964e-05 -0.00263514 0.00293976 -0.206924)
(-1.54115e-06 2.14324e-06 -2.2149e-05 -0.00264183 0.00294574 -0.206922)
(-6.22546e-06 -8.22331e-08 -2.73359e-05 -0.00265147 0.0029521 -0.206917)
(-4.4528e-05 -4.24267e-06 -6.34355e-05 -0.00264322 0.0029429 -0.206896)
(-0.000311983 -2.32152e-05 -0.000312848 -0.00261962 0.0029608 -0.206807)
(-0.00220452 -8.54474e-05 -0.00212083 -0.00254478 0.00279044 -0.207118)
(-0.0193663 -0.000128909 -0.00984176 -0.00222231 0.00237498 -0.209167)
(-0.0924338 -0.00021725 -0.0550944 -0.00222284 0.00252258 -0.151002)
(-0.0926732 0.00012563 0.0552755 -0.00140798 0.00153176 -0.151012)
(-0.0194247 8.15681e-05 0.00991201 -0.00139485 0.00147833 -0.209361)
(-0.0022179 5.71415e-05 0.00215992 -0.00161376 0.00174744 -0.207328)
(-0.000318226 1.46978e-05 0.000320103 -0.0016774 0.00183684 -0.207023)
(-4.5565e-05 2.27911e-06 5.78178e-05 -0.00168594 0.00181565 -0.207105)
(-6.36429e-06 1.72657e-06 2.86304e-05 -0.00168901 0.00185125 -0.207129)
(-1.78761e-06 -3.88147e-07 2.125e-05 -0.00168972 0.00185299 -0.207132)
(-1.11654e-06 -5.2413e-07 1.63639e-05 -0.00168526 0.00184896 -0.207134)
(-7.67798e-07 9.82845e-08 1.28202e-05 -0.00168579 0.00185063 -0.207134)
(-8.36298e-07 -2.43699e-07 1.07679e-05 -0.0016865 0.00185299 -0.207133)
(-7.53659e-07 3.39245e-07 6.91919e-06 -0.00168731 0.0018505 -0.207129)
(-2.09624e-07 9.84784e-07 4.90518e-06 -0.00169782 0.00185526 -0.207129)
(-6.38379e-07 -3.07341e-07 4.17429e-06 -0.001692 0.00185697 -0.207127)
(-5.73476e-07 -1.31762e-06 -5.66024e-06 -0.00168577 0.00185149 -0.207129)
(2.79719e-07 1.17864e-07 -1.10058e-07 -0.00167404 0.00184848 -0.207125)
(-3.89348e-07 6.45765e-07 6.45458e-06 -0.001686 0.00185365 -0.207131)
(-9.23531e-07 -1.45707e-06 -2.58228e-06 -0.00168493 0.00185182 -0.207131)
(-4.17621e-07 2.02107e-06 -4.66494e-06 -0.00168147 0.00181495 -0.207127)
(-1.58261e-07 1.41486e-06 -1.14553e-05 -0.00168745 0.00189564 -0.207133)
(-1.10472e-07 -2.07824e-06 -6.75706e-06 -0.00167717 0.00185189 -0.207123)
(-4.83809e-07 4.75072e-08 -2.57072e-06 -0.0016912 0.00182355 -0.207126)
(-1.1788e-06 6.13631e-08 -1.197e-05 -0.00169024 0.00185129 -0.207128)
(-1.43229e-06 4.34339e-07 -1.67893e-05 -0.00168514 0.00185067 -0.207133)
(-1.59706e-06 1.17716e-06 -2.1336e-05 -0.00168948 0.00185337 -0.207131)
(-6.57082e-06 -3.33055e-07 -2.73933e-05 -0.00169472 0.00185712 -0.207126)
(-4.60446e-05 -3.13297e-06 -5.85259e-05 -0.00169189 0.00185139 -0.207103)
(-0.000317759 -1.68208e-05 -0.000321335 -0.00168386 0.00184148 -0.207012)
(-0.00221764 -5.76812e-05 -0.00216021 -0.0016188 0.00174432 -0.207322)
(-0.0194256 -7.90424e-05 -0.00991379 -0.00139388 0.00147647 -0.209361)
(-0.0926711 -0.000125087 -0.0552784 -0.00141229 0.00157305 -0.15102)
(-0.0928198 7.21573e-05 0.0553756 -0.000895785 0.000965158 -0.151022)
(-0.0194582 4.83579e-05 0.00996519 -0.000890582 0.00090697 -0.209477)
(-0.00222609 3.74255e-05 0.00218199 -0.00104003 0.00107751 -0.207453)
(-0.000322043 1.09154e-05 0.000319113 -0.00108724 0.00113805 -0.20715)
(-4.62518e-05 1.45136e-06 5.85065e-05 -0.00108622 0.00114701 -0.207233)
(-6.55217e-06 4.47273e-07 3.55308e-05 -0.00109819 0.00114619 -0.207259)
(-2.05141e-06 -3.55854e-08 2.10474e-05 -0.00109698 0.00114772 -0.207262)
(-1.10447e-06 -2.67623e-07 1.60606e-05 -0.00109423 0.00114598 -0.207264)
(-7.59702e-07 1.95155e-07 1.27958e-05 -0.00109455 0.00114756 -0.207264)
(-8.43562e-07 -3.58888e-07 1.05353e-05 -0.00109526 0.00114976 -0.207262)
(-6.34207e-07 -8.48454e-07 7.07899e-06 -0.00109716 0.00114606 -0.207259)
(-1.61316e-07 7.90179e-07 5.36597e-06 -0.00109628 0.00111615 -0.207254)
(-6.64239e-07 7.71574e-07 4.00216e-06 -0.00109807 0.00115037 -0.207256)
(-5.89019e-07 6.11242e-08 5.10233e-07 -0.0010948 0.00114807 -0.207259)
(1.46726e-07 1.30077e-07 1.35193e-07 -0.00109627 0.00118187 -0.207259)
(-5.8839e-07 -3.03054e-07 2.62447e-07 -0.00109624 0.00114968 -0.207258)
(-7.32415e-07 -1.60011e-07 -9.58858e-06 -0.00109444 0.00114894 -0.207259)
(9.10638e-08 1.13166e-06 -4.27812e-06 -0.00108154 0.0011478 -0.207256)
(-4.77257e-07 1.00915e-06 2.00066e-06 -0.00110297 0.00115606 -0.207259)
(-5.78593e-07 -5.07308e-07 -1.34754e-05 -0.00109758 0.00118401 -0.207258)
(-1.66907e-07 -1.33944e-06 -9.15929e-06 -0.00108677 0.00115308 -0.207253)
(-9.84341e-07 -6.55026e-07 -5.56544e-06 -0.00110115 0.00114631 -0.207258)
(-1.46305e-06 6.08103e-07 -1.65044e-05 -0.00109414 0.00114789 -0.207262)
(-1.69219e-06 5.75241e-07 -2.09452e-05 -0.00109735 0.00114814 -0.20726)
(-7.02675e-06 -6.44422e-07 -2.75995e-05 -0.00109967 0.0011499 -0.207255)
(-4.71897e-05 -2.61306e-06 -6.62823e-05 -0.00110178 0.0011457 -0.207232)
(-0.000321278 -1.20905e-05 -0.000327484 -0.00108195 0.00110677 -0.207134)
(-0.00222517 -3.74804e-05 -0.00217594 -0.00103684 0.0010409 -0.207444)
(-0.0194593 -4.6534e-05 -0.009957 -0.000890195 0.000906485 -0.209476)
(-0.0928155 -7.09967e-05 -0.0553839 -0.000908866 0.000964849 -0.151032)
(-0.0929009 4.04667e-05 0.0554428 -0.000606615 0.000609559 -0.151038)
(-0.0194776 2.69632e-05 0.00998057 -0.000589605 0.000534558 -0.209545)
(-0.00223014 2.32561e-05 0.00219636 -0.000693714 0.000638517 -0.207528)
(-0.000324544 7.78259e-06 0.000329967 -0.000730384 0.000677418 -0.207226)
(-4.7267e-05 3.69197e-07 5.97799e-05 -0.000741551 0.000716054 -0.207304)
(-6.62513e-06 -3.27062e-07 2.88485e-05 -0.000741443 0.000680532 -0.207337)
(-1.96967e-06 4.32921e-07 2.10785e-05 -0.000736975 0.000682197 -0.207341)
(-1.11368e-06 -8.19787e-08 1.59337e-05 -0.000735317 0.000681802 -0.207342)
(-7.84371e-07 5.16227e-08 1.2963e-05 -0.000735721 0.000683066 -0.207342)
(-9.93689e-07 -6.72377e-07 1.04161e-05 -0.000737466 0.000684418 -0.207332)
(-5.04028e-07 2.2237e-07 3.20995e-07 -0.000740607 0.000681 -0.207338)
(1.28582e-07 9.1228e-07 5.77592e-06 -0.000726238 0.000684814 -0.207331)
(-7.90905e-07 -1.84248e-07 1.05788e-05 -0.000737271 0.000684564 -0.207336)
(-7.23434e-07 -1.11326e-06 3.19787e-07 -0.000735873 0.000683503 -0.207338)
(2.39512e-07 -1.4381e-07 3.54249e-07 -0.000738855 0.000649432 -0.207334)
(-4.38567e-07 9.4837e-07 5.3708e-07 -0.000738825 0.000683612 -0.207327)
(-7.07367e-07 1.40779e-06 -2.96632e-06 -0.00073654 0.000684394 -0.207329)
(-1.96423e-07 7.68982e-07 -3.8763e-06 -0.000732908 0.000719491 -0.207339)
(-4.15421e-07 -1.62001e-06 -4.57823e-06 -0.000741326 0.000688614 -0.207335)
(-5.30762e-07 9.32769e-07 -6.95083e-06 -0.000738992 0.000651195 -0.207333)
(-4.93851e-07 -8.13693e-07 -9.35344e-06 -0.000735873 0.000722451 -0.207335)
(-8.32396e-07 -1.62172e-06 -1.24238e-05 -0.000734646 0.000647519 -0.207334)
(-1.23171e-06 1.15138e-06 -1.63565e-05 -0.000735889 0.00068386 -0.20734)
(-1.84609e-06 2.05118e-07 -2.0875e-05 -0.000738123 0.000682172 -0.207339)
(-7.20698e-06 -1.25171e-06 -2.78027e-05 -0.000738317 0.000683506 -0.207334)
(-4.79764e-05 5.2927e-08 -6.69744e-05 -0.00073464 0.000646774 -0.207307)
(-0.000323831 -5.88215e-06 -0.000338713 -0.000719563 0.000714039 -0.207215)
(-0.00222923 -2.50203e-05 -0.00219052 -0.000680605 0.000637439 -0.207519)
(-0.0194778 -2.75184e-05 -0.00997503 -0.000590501 0.000534212 -0.209542)
(-0.0929009 -3.98627e-05 -0.0554394 -0.000604162 0.00057159 -0.151043)
(-0.0929494 2.08726e-05 0.0554765 -0.000435572 0.000262755 -0.151042)
(-0.019488 1.53929e-05 0.00999499 -0.000420235 0.00027964 -0.209585)
(-0.00223253 1.25235e-05 0.00220505 -0.000498187 0.000335695 -0.20757)
(-0.000326143 2.68053e-06 0.000333687 -0.000528567 0.000356804 -0.20726)
(-4.76638e-05 -6.53527e-07 5.86165e-05 -0.000539522 0.000324173 -0.207357)
(-6.50086e-06 1.37644e-06 2.92612e-05 -0.000529492 0.000324158 -0.20738)
(-2.04668e-06 1.22602e-06 2.12676e-05 -0.00053251 0.000359186 -0.207386)
(-1.21674e-06 2.67755e-08 1.59154e-05 -0.000531677 0.000359453 -0.207387)
(-8.76711e-07 -1.20155e-07 1.2679e-05 -0.00053216 0.00036033 -0.207387)
(-7.67481e-07 -1.33857e-06 9.82849e-06 -0.000532801 0.000359465 -0.207386)
(-2.94023e-07 1.38007e-06 7.40271e-06 -0.000529342 0.000325005 -0.207381)
(-2.35479e-07 1.46609e-06 6.19809e-06 -0.000531735 0.000396257 -0.207379)
(-1.08387e-06 -1.18154e-06 3.80121e-06 -0.000533971 0.000361832 -0.20738)
(-6.01821e-07 -2.71842e-07 -6.57804e-06 -0.0005321 0.000360797 -0.207382)
(5.81375e-07 -4.83502e-07 -9.04383e-08 -0.000524381 0.000360214 -0.207378)
(-2.62839e-07 7.60725e-08 7.25684e-06 -0.000535116 0.000357619 -0.207383)
(-7.85752e-07 1.05361e-06 -2.28213e-06 -0.000533041 0.000360445 -0.207382)
(-5.12371e-07 4.48153e-07 -3.22035e-06 -0.00053797 0.000362834 -0.207383)
(-4.35875e-07 -1.64054e-07 -1.11579e-05 -0.000536198 0.00036225 -0.207372)
(-4.03885e-07 4.39192e-07 -6.82578e-06 -0.000523236 0.000362316 -0.207376)