/*--------------------------------*- C++ -*----------------------------------*\
| =========                 |                                                 |
| \\      /  F ield         | OpenFOAM: The Open Source CFD Toolbox           |
|  \\    /   O peration     | Version:  2106                                  |
|   \\  /    A nd           | Website:  www.openfoam.com                      |
|    \\/     M anipulation  |                                                 |
\*---------------------------------------------------------------------------*/
FoamFile
{
    version     2.0;
    format      ascii;
    arch        "LSB;label=32;scalar=64";
    class       volSymmTensorField;
    location    "557";
    object      sigma;
}
// * * * * * * * * * * * * * * * * * * * * * * * * * * * * * * * * * * * * * //

dimensions      [1 -1 -2 0 0 0 0];

internalField   nonuniform List<symmTensor> 
9000
(
(5.39363e+07 -135990 2.4846e+07 2.2192e+07 3.16786e+07 8.50001e+07)
(9.63411e+07 277405 4.84151e+06 2.42741e+07 3.35977e+07 6.90125e+07)
(1.10954e+08 173185 1.32435e+06 2.6117e+07 3.56753e+07 8.12464e+07)
(1.12754e+08 26113.1 233810 2.62567e+07 3.61335e+07 8.33112e+07)
(1.1297e+08 -4093.94 21309.6 2.62935e+07 3.61473e+07 8.3384e+07)
(1.12979e+08 -1051.5 9683.17 2.6369e+07 3.60383e+07 8.32249e+07)
(1.12977e+08 -12.3748 13412.5 2.63017e+07 3.61227e+07 8.32816e+07)
(1.12986e+08 -3050.07 4039.13 2.63778e+07 3.6039e+07 8.32307e+07)
(1.12983e+08 3329.29 16092.6 2.63762e+07 3.60374e+07 8.32244e+07)
(1.12998e+08 3425.21 -3904.76 2.63039e+07 3.61341e+07 8.33549e+07)
(1.13003e+08 -3224.83 -25362.1 2.63654e+07 3.60738e+07 8.32905e+07)
(1.12982e+08 -276.174 20343.9 2.6435e+07 3.59756e+07 8.31432e+07)
(1.12992e+08 2809.49 30237.3 2.63028e+07 3.61282e+07 8.33345e+07)
(1.1299e+08 425.138 -15637.4 2.62915e+07 3.61327e+07 8.33378e+07)
(1.13006e+08 444.19 944.697 2.63615e+07 3.60784e+07 8.33012e+07)
(1.13e+08 -613.955 15742.8 2.63026e+07 3.61352e+07 8.33547e+07)
(1.1299e+08 172.845 -18668.6 2.62918e+07 3.61322e+07 8.33346e+07)
(1.13004e+08 389.954 -1499.99 2.63602e+07 3.60794e+07 8.3306e+07)
(1.12998e+08 -3436.41 -12616.2 2.6307e+07 3.61308e+07 8.33454e+07)
(1.12989e+08 -3288.73 -13599.7 2.64381e+07 3.59803e+07 8.31704e+07)
(1.12981e+08 2997.38 20523 2.63788e+07 3.60339e+07 8.32076e+07)
(1.12992e+08 3367.19 3483.71 2.62987e+07 3.61308e+07 8.3341e+07)
(1.13e+08 -3036.29 -16597.4 2.63033e+07 3.61353e+07 8.33569e+07)
(1.12987e+08 -420.175 -13931.4 2.63728e+07 3.60411e+07 8.32381e+07)
(1.12989e+08 851.753 -12995.8 2.6301e+07 3.61278e+07 8.33339e+07)
(1.12958e+08 997.344 -48821.2 2.6366e+07 3.6054e+07 8.32696e+07)
(1.12755e+08 -23563.7 -227807 2.63209e+07 3.60693e+07 8.32354e+07)
(1.10943e+08 -173076 -1.30495e+06 2.61092e+07 3.56694e+07 8.12229e+07)
(9.63385e+07 -276921 -4.84067e+06 2.42738e+07 3.35972e+07 6.90107e+07)
(5.39348e+07 135955 -2.48465e+07 2.21904e+07 3.16763e+07 8.49955e+07)
(4.17513e+07 -5853.49 2.39778e+07 2.85095e+07 3.5174e+07 1.25625e+07)
(7.28741e+07 352055 4.14062e+06 2.80976e+07 3.70128e+07 -8.94511e+06)
(8.60171e+07 223184 796580 3.05972e+07 3.93267e+07 -1.43117e+06)
(8.73503e+07 36595.8 119228 3.05057e+07 3.99238e+07 -569054)
(8.74933e+07 -3260.32 17410.6 3.05447e+07 3.99408e+07 -542219)
(8.76096e+07 -1677.25 16646.7 3.07626e+07 3.99065e+07 -445376)
(8.75302e+07 268.813 13526.7 3.05957e+07 3.99124e+07 -531481)
(8.76248e+07 -883.906 -1365.4 3.07884e+07 3.99091e+07 -429969)
(8.76222e+07 1062.02 17566.8 3.07847e+07 3.99056e+07 -436264)
(8.75212e+07 3730.58 17345.2 3.05732e+07 3.99192e+07 -539196)
(8.75805e+07 1722.27 -6025.73 3.06825e+07 4.00096e+07 -464908)
(8.76869e+07 -3032.08 2076.06 3.09024e+07 3.99914e+07 -353322)
(8.75205e+07 -3609.2 12114.4 3.0573e+07 3.99104e+07 -541643)
(8.75401e+07 3247.61 865.615 3.06043e+07 3.98406e+07 -512335)
(8.7574e+07 1934.15 -762.472 3.06694e+07 4.00166e+07 -473226)
(8.7519e+07 -4652.41 -1029.53 3.05689e+07 3.99216e+07 -543535)
(8.75403e+07 2662.6 -342.208 3.06051e+07 3.984e+07 -513569)
(8.7574e+07 1965.89 -1668.82 3.06673e+07 4.00171e+07 -470774)
(8.75247e+07 -1104.51 -12529.4 3.05817e+07 3.99143e+07 -537818)
(8.76832e+07 -988.74 -14237.7 3.08953e+07 4.00018e+07 -356010)
(8.76348e+07 -2143.61 2523.22 3.08055e+07 3.98993e+07 -417536)
(8.75137e+07 989.294 2599.14 3.05603e+07 3.9914e+07 -550233)
(8.75195e+07 -563.212 -19442 3.05704e+07 3.99217e+07 -541882)
(8.76179e+07 -897.925 -12034 3.07727e+07 3.99105e+07 -435622)
(8.7514e+07 1763.02 -15445.8 3.05665e+07 3.99087e+07 -546619)
(8.75957e+07 5119.21 -26938.7 3.07547e+07 3.99322e+07 -431548)
(8.74158e+07 -37891.2 -108735 3.06285e+07 4.0008e+07 -487592)
(8.60341e+07 -225758 -797618 3.06329e+07 3.92441e+07 -1.41331e+06)
(7.28756e+07 -350336 -4.14196e+06 2.80999e+07 3.70117e+07 -8.94293e+06)
(4.17504e+07 5844.19 -2.39781e+07 2.85061e+07 3.51687e+07 1.25607e+07)
(4.5334e+07 604950 2.41155e+07 5.50069e+07 3.00063e+07 5.56303e+06)
(8.00967e+07 449496 4.05803e+06 5.75568e+07 3.12862e+07 -1.55659e+07)
(9.39293e+07 267972 706518 6.2172e+07 3.33858e+07 -8.27557e+06)
(9.53062e+07 50652.2 88137.6 6.23347e+07 3.39927e+07 -7.57802e+06)
(9.54416e+07 -453.817 29618.5 6.23823e+07 3.4015e+07 -7.56016e+06)
(9.55218e+07 -2648.84 18384 6.25098e+07 3.40716e+07 -7.46648e+06)
(9.54673e+07 1136.4 13059.5 6.24146e+07 3.39837e+07 -7.5474e+06)
(9.55183e+07 2314.39 11363.5 6.25083e+07 3.41221e+07 -7.48102e+06)
(9.55135e+07 -1475.38 3985.02 6.24987e+07 3.41184e+07 -7.48825e+06)
(9.54671e+07 -1424.57 4669.95 6.24115e+07 3.39948e+07 -7.5518e+06)
(9.54769e+07 1674.74 9414.77 6.24283e+07 3.39819e+07 -7.53364e+06)
(9.55323e+07 -1386.18 2286.19 6.25304e+07 3.41092e+07 -7.45696e+06)
(9.54956e+07 -1782.7 -10431.7 6.24513e+07 3.39382e+07 -7.49937e+06)
(9.55072e+07 1974.45 236.372 6.24869e+07 3.39964e+07 -7.50217e+06)
(9.54727e+07 266.815 6221.84 6.24216e+07 3.39902e+07 -7.53976e+06)
(9.54645e+07 -554.001 -8739.6 6.24087e+07 3.3998e+07 -7.55422e+06)
(9.55057e+07 235.036 181.372 6.24858e+07 3.39957e+07 -7.50503e+06)
(9.5473e+07 150.597 6087.78 6.24202e+07 3.39898e+07 -7.5401e+06)
(9.54689e+07 1209.46 1636.88 6.24174e+07 3.39898e+07 -7.54852e+06)
(9.55288e+07 1448.8 -286.063 6.25248e+07 3.41116e+07 -7.46287e+06)
(9.55268e+07 -2848.78 -10937.2 6.25219e+07 3.41191e+07 -7.46711e+06)
(9.54796e+07 -1318.52 -11984.8 6.2429e+07 3.39426e+07 -7.52984e+06)
(9.54653e+07 2623.69 -6713.29 6.24103e+07 3.39982e+07 -7.55388e+06)
(9.55093e+07 -2051.13 -11032.9 6.24896e+07 3.41219e+07 -7.49013e+06)
(9.54757e+07 2082.72 -15832.4 6.24256e+07 3.39373e+07 -7.5276e+06)
(9.54939e+07 2386.15 -24440.3 6.24769e+07 3.4143e+07 -7.48757e+06)
(9.53228e+07 -52796.4 -98198.5 6.23642e+07 3.39736e+07 -7.55103e+06)
(9.39693e+07 -267844 -710074 6.22492e+07 3.33757e+07 -8.22957e+06)
(8.01003e+07 -449778 -4.0526e+06 5.75608e+07 3.12852e+07 -1.55613e+07)
(4.53319e+07 -604835 -2.41153e+07 5.49985e+07 2.99997e+07 5.55868e+06)
(4.97614e+07 936519 2.49527e+07 7.38583e+07 2.11042e+07 1.24068e+07)
(8.85265e+07 454042 4.19868e+06 7.81317e+07 2.18044e+07 -8.60772e+06)
(1.03358e+08 255295 768253 8.41466e+07 2.35281e+07 -653397)
(1.04869e+08 51799.5 98744 8.45312e+07 2.39811e+07 150478)
(1.05016e+08 -395.19 21955.8 8.45774e+07 2.4005e+07 167710)
(1.05074e+08 -3474.93 18657.3 8.46575e+07 2.39518e+07 234276)
(1.05051e+08 664.175 17423.7 8.46215e+07 2.39455e+07 196294)
(1.05033e+08 797.511 9791.95 8.45947e+07 2.39891e+07 166903)
(1.05054e+08 258.429 6325.27 8.46182e+07 2.39511e+07 207015)
(1.05043e+08 183.169 5895.59 8.46064e+07 2.3989e+07 177884)
(1.05045e+08 -1011.29 7467.27 8.4612e+07 2.39822e+07 182983)
(1.05051e+08 395.529 -2499.03 8.46173e+07 2.39777e+07 202430)
(1.05073e+08 3060.37 -1986.85 8.46601e+07 2.39896e+07 218992)
(1.05052e+08 524.335 5315.49 8.4628e+07 2.40745e+07 184196)
(1.05045e+08 -1796.34 -389.798 8.46129e+07 2.39895e+07 181350)
(1.0504e+08 2110.21 -1928.62 8.46033e+07 2.39924e+07 173890)
(1.0505e+08 -316.921 -32.8189 8.46256e+07 2.40737e+07 180332)
(1.05045e+08 -2178.21 -6.2619 8.46128e+07 2.39892e+07 180795)
(1.05053e+08 -802.964 -551.6 8.46192e+07 2.39843e+07 200783)
(1.05039e+08 -384.983 -2763.18 8.46038e+07 2.39832e+07 176464)
(1.05047e+08 576.239 -13437.5 8.46109e+07 2.39839e+07 194087)
(1.05072e+08 807.759 -10141.9 8.46533e+07 2.39863e+07 221280)
(1.05041e+08 -657.208 -3547.62 8.46064e+07 2.39934e+07 174368)
(1.05041e+08 -1984.03 -15865.8 8.46028e+07 2.39532e+07 182802)
(1.05081e+08 2503.86 -16064.1 8.46678e+07 2.39468e+07 245207)
(1.05013e+08 96.6088 -18671.4 8.45712e+07 2.40044e+07 167442)
(1.04878e+08 -50386.7 -99618 8.45481e+07 2.3968e+07 165738)
(1.03381e+08 -254045 -772194 8.41821e+07 2.36015e+07 -616628)
(8.85303e+07 -456807 -4.20057e+06 7.81353e+07 2.18036e+07 -8.60341e+06)
(4.97682e+07 -936154 -2.49517e+07 7.38721e+07 2.10646e+07 1.24231e+07)
(5.2619e+07 917439 2.59846e+07 8.56347e+07 1.36111e+07 1.84564e+07)
(9.39598e+07 397557 4.41215e+06 9.09622e+07 1.3812e+07 -3.0019e+06)
(1.09652e+08 212754 856575 9.77959e+07 1.51624e+07 5.54207e+06)
(1.11312e+08 44504.3 109253 9.83885e+07 1.54558e+07 6.48877e+06)
(1.11488e+08 2778.22 21462.5 9.84557e+07 1.54506e+07 6.52556e+06)
(1.11515e+08 -2433.6 12759.4 9.84945e+07 1.55251e+07 6.52564e+06)
(1.11527e+08 -1455.73 16838.6 9.85049e+07 1.54339e+07 6.54796e+06)
(1.11498e+08 1154.86 9196.14 9.8457e+07 1.54725e+07 6.50676e+06)
(1.11517e+08 -79.1154 6955.76 9.84887e+07 1.54732e+07 6.53113e+06)
(1.11511e+08 -1127.63 10770.9 9.84668e+07 1.54673e+07 6.5313e+06)
(1.11516e+08 -1055.12 6219.58 9.84823e+07 1.5436e+07 6.53579e+06)
(1.11506e+08 2054 1729.32 9.84644e+07 1.54676e+07 6.52336e+06)
(1.11504e+08 2533.08 -1491.3 9.84666e+07 1.55179e+07 6.5105e+06)
(1.11494e+08 -634.314 1095.86 9.84423e+07 1.54807e+07 6.50234e+06)
(1.11505e+08 -1107.31 400.252 9.84661e+07 1.54692e+07 6.51768e+06)
(1.11501e+08 1305.81 -2296.97 9.84559e+07 1.54699e+07 6.51218e+06)
(1.11492e+08 -173.708 -363.129 9.84404e+07 1.54799e+07 6.49918e+06)
(1.11505e+08 -1772.45 676.224 9.84661e+07 1.5469e+07 6.51662e+06)
(1.11515e+08 -882.471 -1552.4 9.84717e+07 1.54665e+07 6.54146e+06)
(1.11501e+08 -52.8614 -3751.39 9.84601e+07 1.54687e+07 6.51233e+06)
(1.11503e+08 1416.8 -7406.17 9.84621e+07 1.54716e+07 6.517e+06)
(1.11515e+08 964.393 -8921.05 9.84837e+07 1.54924e+07 6.52691e+06)
(1.11502e+08 -601.125 -13055.3 9.84622e+07 1.54715e+07 6.51177e+06)
(1.11512e+08 -518.309 -15835.9 9.84804e+07 1.5471e+07 6.52588e+06)
(1.11527e+08 1284.23 -10855 9.85079e+07 1.54879e+07 6.54734e+06)
(1.11476e+08 -2476.08 -18971.2 9.84368e+07 1.54813e+07 6.50989e+06)
(1.11317e+08 -44573.2 -110311 9.83946e+07 1.54466e+07 6.49989e+06)
(1.09646e+08 -211280 -858975 9.77816e+07 1.51695e+07 5.53922e+06)
(9.39637e+07 -398140 -4.41862e+06 9.09649e+07 1.38111e+07 -2.99887e+06)
(5.26312e+07 -916417 -2.59782e+07 8.56669e+07 1.3606e+07 1.84769e+07)
(5.41916e+07 721333 2.68866e+07 9.27747e+07 8.49501e+06 2.19435e+07)
(9.69923e+07 314215 4.61909e+06 9.87883e+07 8.44906e+06 -81462.7)
(1.13369e+08 164992 935259 1.06194e+08 9.38144e+06 8.93321e+06)
(1.15118e+08 38013 121021 1.06899e+08 9.65407e+06 9.92467e+06)
(1.15314e+08 4057.43 25488.8 1.06982e+08 9.67509e+06 9.96673e+06)
(1.15314e+08 -1289.69 15890.7 1.0696e+08 9.71604e+06 9.93304e+06)
(1.15347e+08 -1986.93 12947.6 1.07014e+08 9.67789e+06 9.97503e+06)
(1.15325e+08 791.783 12763.5 1.06972e+08 9.67162e+06 9.94895e+06)
(1.15323e+08 -859.939 6914.62 1.06974e+08 9.70827e+06 9.9417e+06)
(1.15336e+08 -1472.36 2668.46 1.06986e+08 9.64508e+06 9.96694e+06)
(1.15343e+08 -836.754 5576.93 1.07004e+08 9.66591e+06 9.97284e+06)
(1.15345e+08 74.6867 5503.05 1.06995e+08 9.64406e+06 9.9886e+06)
(1.15327e+08 2493.33 -471.098 1.06966e+08 9.64987e+06 9.95653e+06)
(1.15322e+08 437.975 1708.83 1.06962e+08 9.6784e+06 9.9465e+06)
(1.15329e+08 -1314.63 480.051 1.06976e+08 9.66913e+06 9.95654e+06)
(1.15335e+08 952.671 -1891.41 1.06983e+08 9.64514e+06 9.96684e+06)
(1.15321e+08 417.876 -706.881 1.06961e+08 9.6775e+06 9.94498e+06)
(1.15329e+08 -2188.19 -64.9824 1.06976e+08 9.66946e+06 9.9547e+06)
(1.15344e+08 -764.628 -2131.26 1.06993e+08 9.64403e+06 9.98685e+06)
(1.15325e+08 692.963 -3765.41 1.06969e+08 9.66865e+06 9.95219e+06)
(1.15333e+08 1529 -11130.6 1.06976e+08 9.67019e+06 9.96973e+06)
(1.15332e+08 968.367 -8290.79 1.06984e+08 9.67523e+06 9.95706e+06)
(1.15325e+08 -220.052 -4300 1.06973e+08 9.67098e+06 9.94946e+06)
(1.15339e+08 342.15 -16454.6 1.06991e+08 9.68405e+06 9.97425e+06)
(1.15335e+08 219.504 -14778.1 1.06993e+08 9.68511e+06 9.9639e+06)
(1.15299e+08 -4261.3 -19149.7 1.06952e+08 9.67594e+06 9.95265e+06)
(1.15138e+08 -37320.1 -126859 1.06921e+08 9.62374e+06 9.96683e+06)
(1.13357e+08 -163305 -936467 1.06178e+08 9.38603e+06 8.91342e+06)
(9.69968e+07 -313473 -4.62042e+06 9.87913e+07 8.44833e+06 -77120.1)
(5.41966e+07 -720842 -2.68797e+07 9.27857e+07 8.52874e+06 2.19461e+07)
(5.50572e+07 497755 2.7549e+07 9.71415e+07 5.28199e+06 2.38082e+07)
(9.86728e+07 231200 4.7897e+06 1.03574e+08 5.15432e+06 1.31253e+06)
(1.15527e+08 122676 994492 1.11399e+08 5.83623e+06 1.06148e+07)
(1.1735e+08 30056.3 142113 1.12173e+08 6.01896e+06 1.16648e+07)
(1.17551e+08 3496.71 26962.6 1.12246e+08 6.06731e+06 1.17061e+07)
(1.1756e+08 -517.914 11202.9 1.12229e+08 6.04536e+06 1.16818e+07)
(1.17586e+08 -1388.49 12833.9 1.12272e+08 6.0656e+06 1.17133e+07)
(1.17571e+08 -713.218 12536.4 1.12249e+08 6.03473e+06 1.1693e+07)
(1.17567e+08 -129.537 2889.82 1.12239e+08 6.03907e+06 1.16864e+07)
(1.17584e+08 -96.9653 6305.78 1.12273e+08 6.03369e+06 1.17067e+07)
(1.17575e+08 -906.463 4833.84 1.12259e+08 6.06155e+06 1.16939e+07)
(1.17586e+08 -901.19 -1819.99 1.12272e+08 6.03264e+06 1.17135e+07)
(1.17589e+08 1487.05 4527.12 1.12274e+08 6.0162e+06 1.1718e+07)
(1.17571e+08 269.685 5452.01 1.12245e+08 6.03911e+06 1.16944e+07)
(1.17575e+08 -467.317 -3469.39 1.12252e+08 6.03309e+06 1.16988e+07)
(1.17586e+08 738.454 -1402.4 1.12272e+08 6.03338e+06 1.1711e+07)
(1.17571e+08 -200.244 2935.9 1.12245e+08 6.03831e+06 1.16935e+07)
(1.17575e+08 -1388.67 -4988.08 1.12252e+08 6.03344e+06 1.16978e+07)
(1.17583e+08 -995.826 -2381.02 1.12268e+08 6.0323e+06 1.17079e+07)
(1.17581e+08 -447.637 351.595 1.12261e+08 6.01091e+06 1.17096e+07)
(1.17585e+08 2484.59 -6843.59 1.12262e+08 6.01382e+06 1.17226e+07)
(1.17568e+08 1540.71 -7615.14 1.12245e+08 6.06871e+06 1.16841e+07)
(1.17571e+08 -690.016 -12266.5 1.12249e+08 6.03497e+06 1.16922e+07)
(1.17579e+08 1037.63 -16404.3 1.1226e+08 6.0396e+06 1.17029e+07)
(1.17578e+08 -703.425 -10337.4 1.12264e+08 6.04954e+06 1.1704e+07)
(1.17553e+08 -4532.69 -24415.8 1.12247e+08 6.01506e+06 1.17113e+07)
(1.1737e+08 -27910.3 -143506 1.122e+08 6.0145e+06 1.17032e+07)
(1.15527e+08 -121593 -992467 1.11396e+08 5.83802e+06 1.06174e+07)
(9.86768e+07 -230968 -4.79117e+06 1.03577e+08 5.15323e+06 1.31832e+06)
(5.50567e+07 -498424 -2.75461e+07 9.7135e+07 5.28804e+06 2.3803e+07)
(5.55668e+07 316236 2.79872e+07 9.98543e+07 3.30123e+06 2.4856e+07)
(9.96492e+07 160522 4.92521e+06 1.06519e+08 3.17174e+06 2.02847e+06)
(1.16817e+08 88844.1 1.03975e+06 1.14634e+08 3.67011e+06 1.15174e+07)
(1.18702e+08 21514.6 148345 1.15481e+08 3.77885e+06 1.26156e+07)
(1.18909e+08 2804.07 28131 1.15546e+08 3.79832e+06 1.26574e+07)
(1.18928e+08 546.582 14333 1.15547e+08 3.79952e+06 1.26408e+07)
(1.1893e+08 -1002.52 11963.9 1.1555e+08 3.82304e+06 1.26359e+07)
(1.18936e+08 -1081.53 9084.18 1.1556e+08 3.79236e+06 1.26456e+07)
(1.18934e+08 803.163 6579.94 1.15554e+08 3.79572e+06 1.26427e+07)
(1.18938e+08 -134.133 5960.09 1.15565e+08 3.81785e+06 1.26445e+07)
(1.18935e+08 -1145.9 4109.27 1.15557e+08 3.79443e+06 1.26456e+07)
(1.18945e+08 723.871 -1693.01 1.15574e+08 3.79733e+06 1.26566e+07)
(1.18948e+08 604.068 1674.4 1.1558e+08 3.81993e+06 1.26579e+07)
(1.18937e+08 -1223.19 5298.29 1.15559e+08 3.79502e+06 1.2649e+07)
(1.18938e+08 481.331 42.0882 1.15561e+08 3.79091e+06 1.26493e+07)
(1.18939e+08 607.181 -995.439 1.15565e+08 3.8172e+06 1.26468e+07)
(1.18937e+08 -1008.48 -836.098 1.15558e+08 3.79432e+06 1.26473e+07)
(1.18939e+08 -675.81 -1895.69 1.15562e+08 3.79148e+06 1.26498e+07)
(1.18942e+08 -226.185 -6204.81 1.15569e+08 3.7966e+06 1.26533e+07)
(1.18949e+08 -642.651 -7210.52 1.15581e+08 3.7904e+06 1.26637e+07)
(1.18953e+08 1282.78 -2494.02 1.15586e+08 3.77262e+06 1.26689e+07)
(1.18931e+08 1191.5 -3145.49 1.15549e+08 3.79864e+06 1.26401e+07)
(1.18935e+08 455.303 -8793.46 1.15559e+08 3.79295e+06 1.26446e+07)
(1.18933e+08 1903.1 -16052 1.15556e+08 3.8219e+06 1.26388e+07)
(1.18936e+08 -903.474 -17414.7 1.15563e+08 3.8262e+06 1.26477e+07)
(1.1892e+08 -4760.01 -22670.7 1.15569e+08 3.7931e+06 1.26665e+07)
(1.18708e+08 -20738.7 -144964 1.1549e+08 3.7806e+06 1.26261e+07)
(1.16818e+08 -88143.8 -1.04073e+06 1.14633e+08 3.67037e+06 1.15235e+07)
(9.96605e+07 -160241 -4.92726e+06 1.06529e+08 3.17105e+06 2.05222e+06)
(5.5566e+07 -316971 -2.79858e+07 9.98495e+07 3.30588e+06 2.48511e+07)
(5.58858e+07 190826 2.82587e+07 1.01556e+08 2.07116e+06 2.54861e+07)
(1.00245e+08 105582 5.01657e+06 1.08337e+08 1.96837e+06 2.44467e+06)
(1.17621e+08 62976.8 1.07331e+06 1.16668e+08 2.2915e+06 1.20684e+07)
(1.19545e+08 15852 155749 1.17567e+08 2.38538e+06 1.31876e+07)
(1.19755e+08 2218.58 28550 1.17632e+08 2.40002e+06 1.32197e+07)
(1.19782e+08 471.45 14334 1.17641e+08 2.40054e+06 1.32179e+07)
(1.19781e+08 -660.94 11486.3 1.17635e+08 2.40281e+06 1.3212e+07)
(1.19788e+08 -645.845 9001.05 1.17649e+08 2.39648e+06 1.32195e+07)
(1.19788e+08 451.062 6845.53 1.17646e+08 2.39824e+06 1.32193e+07)
(1.19792e+08 -117.206 5888.96 1.17649e+08 2.40033e+06 1.32308e+07)
(1.19789e+08 -298.438 -37.6362 1.17648e+08 2.39863e+06 1.32219e+07)
(1.19797e+08 1221.47 1885.48 1.17662e+08 2.39959e+06 1.32315e+07)
(1.19788e+08 0.0412848 5591.42 1.17646e+08 2.42365e+06 1.32177e+07)
(1.1979e+08 -1759.8 1464.93 1.17649e+08 2.39831e+06 1.32232e+07)
(1.19788e+08 174.622 72.0861 1.17647e+08 2.3953e+06 1.32213e+07)
(1.19793e+08 624.245 -666.876 1.17649e+08 2.39986e+06 1.32308e+07)
(1.19789e+08 -620.803 -1108.72 1.17649e+08 2.39782e+06 1.32213e+07)
(1.1979e+08 -570.597 -5559.07 1.1765e+08 2.39567e+06 1.32225e+07)
(1.19807e+08 533.909 -2723.62 1.17673e+08 2.38105e+06 1.32521e+07)
(1.1979e+08 918.041 -3970.68 1.17651e+08 2.41786e+06 1.32217e+07)
(1.19798e+08 291.369 -5360.86 1.17668e+08 2.41988e+06 1.32291e+07)
(1.19786e+08 -376.408 -2646.22 1.17643e+08 2.40106e+06 1.32186e+07)
(1.19787e+08 305.476 -8864 1.17648e+08 2.39725e+06 1.32189e+07)
(1.19783e+08 1913.29 -11979.9 1.17639e+08 2.40207e+06 1.32145e+07)
(1.19779e+08 120.979 -13970.6 1.17635e+08 2.4273e+06 1.32127e+07)
(1.1976e+08 -4358.81 -31402.5 1.17643e+08 2.41951e+06 1.32248e+07)
(1.19557e+08 -16397.1 -155810 1.17584e+08 2.36656e+06 1.32072e+07)
(1.17623e+08 -62396.4 -1.07022e+06 1.16669e+08 2.29081e+06 1.2075e+07)
(1.00247e+08 -105117 -5.01754e+06 1.08339e+08 1.96692e+06 2.44922e+06)
(5.58855e+07 -191307 -2.82585e+07 1.01555e+08 2.07452e+06 2.54838e+07)
(5.60909e+07 111862 2.84205e+07 1.02625e+08 1.29886e+06 2.58784e+07)
(1.00617e+08 67163.3 5.07616e+06 1.0946e+08 1.22651e+06 2.70487e+06)
(1.1813e+08 43623.5 1.09739e+06 1.17956e+08 1.44085e+06 1.24188e+07)
(1.20077e+08 11350.2 161236 1.18883e+08 1.50707e+06 1.35498e+07)
(1.20296e+08 1673.72 29815.1 1.18955e+08 1.5182e+06 1.35931e+07)
(1.20321e+08 540.075 14475 1.18963e+08 1.51799e+06 1.35825e+07)
(1.20323e+08 -402.11 11173.1 1.18961e+08 1.51971e+06 1.358e+07)
(1.20327e+08 -427.678 8700.62 1.18968e+08 1.51567e+06 1.35828e+07)
(1.20327e+08 134.976 6836.78 1.18967e+08 1.51666e+06 1.35829e+07)
(1.20331e+08 -103.688 5772.61 1.1897e+08 1.51899e+06 1.35936e+07)
(1.20328e+08 596.722 3342.87 1.18968e+08 1.51715e+06 1.35865e+07)
(1.20328e+08 757.395 2178.96 1.18967e+08 1.53902e+06 1.35841e+07)
(1.20325e+08 -644.798 2184.76 1.1896e+08 1.52175e+06 1.35828e+07)
(1.20329e+08 -1593.51 994.158 1.18969e+08 1.51716e+06 1.35869e+07)
(1.20333e+08 19.2487 -53.9014 1.18975e+08 1.49685e+06 1.3593e+07)
(1.20327e+08 928.92 -382.811 1.18966e+08 1.51822e+06 1.35839e+07)
(1.20328e+08 -460.462 -1209.6 1.18969e+08 1.517e+06 1.35849e+07)
(1.20327e+08 626.59 -5850.08 1.18966e+08 1.51525e+06 1.35841e+07)
(1.20336e+08 7.33681 -2594.64 1.18985e+08 1.53895e+06 1.35941e+07)
(1.20331e+08 129.686 -249.034 1.18971e+08 1.49925e+06 1.35921e+07)
(1.20324e+08 691.727 -4971.38 1.18961e+08 1.53975e+06 1.35789e+07)
(1.20326e+08 -754.953 -5997.03 1.18965e+08 1.51852e+06 1.35846e+07)
(1.20326e+08 214.773 -8767.81 1.18968e+08 1.51651e+06 1.35828e+07)
(1.20324e+08 1105.62 -11425.8 1.18962e+08 1.5196e+06 1.35813e+07)
(1.20317e+08 -42.421 -14101.6 1.18953e+08 1.52288e+06 1.35797e+07)
(1.20294e+08 -2188.64 -32724 1.18953e+08 1.51813e+06 1.35866e+07)
(1.20085e+08 -11975.9 -161387 1.18894e+08 1.52737e+06 1.35615e+07)
(1.18132e+08 -44079.1 -1.09406e+06 1.17956e+08 1.43949e+06 1.24244e+07)
(1.00618e+08 -66499.6 -5.077e+06 1.09462e+08 1.22517e+06 2.70687e+06)
(5.60912e+07 -112071 -2.84212e+07 1.02628e+08 1.30131e+06 2.58779e+07)
(5.62271e+07 64807.7 2.85145e+07 1.03307e+08 790176 2.61323e+07)
(1.00852e+08 42077.9 5.11324e+06 1.10152e+08 762615 2.87053e+06)
(1.1845e+08 29477.2 1.11422e+06 1.18761e+08 901442 1.26408e+07)
(1.20412e+08 7582.04 165129 1.1971e+08 947555 1.37805e+07)
(1.20636e+08 1175.71 29826.1 1.19789e+08 936625 1.38214e+07)
(1.20661e+08 890.673 14769.4 1.19793e+08 954993 1.38144e+07)
(1.20664e+08 -200.231 10962.1 1.19793e+08 955890 1.38133e+07)
(1.20666e+08 -270.379 8441.52 1.19797e+08 953809 1.38139e+07)
(1.20666e+08 50.7013 6613.44 1.19797e+08 954670 1.38136e+07)
(1.20666e+08 -125.715 5554.78 1.19796e+08 955888 1.3814e+07)
(1.20668e+08 175.004 3569.36 1.19798e+08 954603 1.38177e+07)
(1.20664e+08 508.013 2530.4 1.19788e+08 957059 1.38137e+07)
(1.20667e+08 -158.546 2153.36 1.19794e+08 957943 1.3818e+07)
(1.20668e+08 -679.712 -2919.91 1.19799e+08 955112 1.38184e+07)
(1.20676e+08 60.8016 -56.775 1.19813e+08 953564 1.3828e+07)
(1.20668e+08 333.126 3329.68 1.19798e+08 956227 1.38164e+07)
(1.20668e+08 -751.646 -1332.1 1.19799e+08 955284 1.3817e+07)
(1.20672e+08 1042.6 -2406.47 1.19804e+08 936268 1.38226e+07)
(1.20666e+08 729.875 -5909.36 1.19796e+08 977890 1.38139e+07)
(1.20676e+08 -1072.09 -3485.71 1.1981e+08 955323 1.38284e+07)
(1.20668e+08 24.5072 -1326.14 1.19795e+08 940702 1.38195e+07)
(1.20666e+08 31.6549 -6174.86 1.19795e+08 955014 1.38169e+07)
(1.20666e+08 224.06 -8660.96 1.19797e+08 954693 1.38145e+07)
(1.20665e+08 607.251 -11006.5 1.19794e+08 956086 1.38144e+07)
(1.2066e+08 -171.811 -14131.2 1.19789e+08 958018 1.38151e+07)
(1.20633e+08 -1616.18 -30191.3 1.19784e+08 955065 1.38199e+07)
(1.20414e+08 -8677.2 -165765 1.19709e+08 949951 1.37877e+07)
(1.1845e+08 -29755.6 -1.11437e+06 1.18759e+08 899829 1.26443e+07)
(1.00851e+08 -40775 -5.11415e+06 1.10153e+08 761655 2.87056e+06)
(5.62237e+07 -64527.7 -2.85161e+07 1.03301e+08 811479 2.61239e+07)
(5.63146e+07 37223.3 2.85662e+07 1.03735e+08 497889 2.62902e+07)
(1.00997e+08 24946 5.14067e+06 1.10575e+08 467872 2.97332e+06)
(1.18648e+08 19306.4 1.12561e+06 1.19259e+08 555849 1.27787e+07)
(1.2062e+08 5630.87 164618 1.20225e+08 587079 1.39255e+07)
(1.20851e+08 748.702 30181.3 1.20315e+08 591702 1.39713e+07)
(1.20873e+08 230.732 18329 1.2031e+08 591278 1.3959e+07)
(1.20876e+08 -18.3572 10857.5 1.20311e+08 592069 1.39586e+07)
(1.20877e+08 -138.057 8285.04 1.20314e+08 591168 1.39585e+07)
(1.20878e+08 100.673 6600.9 1.20313e+08 591983 1.39583e+07)
(1.20878e+08 -185.137 5434.79 1.20313e+08 593117 1.39597e+07)
(1.20879e+08 -437.686 3651.79 1.20313e+08 591212 1.39619e+07)
(1.20882e+08 407.624 2768.11 1.20317e+08 575782 1.39678e+07)
(1.20879e+08 398.026 2064.57 1.20313e+08 593431 1.3964e+07)
(1.2088e+08 31.5317 263.21 1.20315e+08 592249 1.39631e+07)
(1.2088e+08 67.102 69.7409 1.20314e+08 609682 1.39625e+07)
(1.2088e+08 -156.334 135.387 1.20314e+08 593078 1.39632e+07)
(1.2088e+08 -82.5436 -4946.39 1.20316e+08 592697 1.39632e+07)
(1.20888e+08 583.782 -2206.92 1.2033e+08 592107 1.39721e+07)
(1.20876e+08 520.584 1032.07 1.20307e+08 596369 1.39592e+07)
(1.20879e+08 -261.702 -6951.44 1.20313e+08 610787 1.39631e+07)
(1.20887e+08 -690.969 -4724.94 1.20326e+08 594832 1.39726e+07)
(1.20877e+08 -337.904 -2871.01 1.20309e+08 591341 1.39608e+07)
(1.20878e+08 313.698 -8513.99 1.20314e+08 592152 1.39597e+07)
(1.20877e+08 296.745 -10804.8 1.20312e+08 592281 1.39599e+07)
(1.20873e+08 -332.434 -14237.6 1.20309e+08 593192 1.39615e+07)
(1.20844e+08 -1347.98 -34192.6 1.203e+08 591021 1.39646e+07)
(1.20631e+08 -6237.05 -168937 1.20238e+08 570944 1.39435e+07)
(1.18654e+08 -19334.7 -1.12249e+06 1.19267e+08 536963 1.27893e+07)
(1.00996e+08 -24005.2 -5.13645e+06 1.10575e+08 467622 2.9737e+06)
(5.63082e+07 -36624.5 -2.85705e+07 1.03719e+08 497730 2.62765e+07)
(5.63605e+07 20875.3 2.86009e+07 1.03972e+08 314449 2.63695e+07)
(1.01085e+08 13909.3 5.14861e+06 1.10828e+08 275759 3.03636e+06)
(1.18768e+08 11996.9 1.13302e+06 1.19561e+08 329387 1.28625e+07)
(1.20746e+08 4014.75 170218 1.20537e+08 349455 1.40138e+07)
(1.20976e+08 190.455 30838.2 1.20617e+08 369386 1.40593e+07)
(1.21e+08 -168.719 14881.9 1.20621e+08 351061 1.40459e+07)
(1.21005e+08 223.328 10873.6 1.20626e+08 351920 1.40468e+07)
(1.21006e+08 -42.2898 8219.61 1.20627e+08 351716 1.40462e+07)
(1.21006e+08 26.6302 6687.15 1.20627e+08 352369 1.40464e+07)
(1.2101e+08 -346.854 5373.29 1.2063e+08 353066 1.40559e+07)
(1.21006e+08 114.712 165.589 1.20624e+08 351302 1.40485e+07)
(1.21016e+08 470.611 2979.58 1.20642e+08 353270 1.40619e+07)
(1.21008e+08 -95.0468 5457.23 1.20628e+08 353141 1.40517e+07)
(1.21008e+08 -574.289 164.966 1.20629e+08 352594 1.40508e+07)
(1.21009e+08 -74.1861 182.744 1.20628e+08 335018 1.40534e+07)
(1.21012e+08 489.229 277.06 1.20631e+08 352650 1.40596e+07)
(1.21012e+08 726.229 -1530.21 1.20633e+08 353054 1.40594e+07)
(1.2101e+08 396.689 -1999.64 1.20632e+08 371159 1.40515e+07)
(1.21007e+08 -835.702 -2361.74 1.20625e+08 355230 1.40506e+07)
(1.21009e+08 481.181 -3585.67 1.20628e+08 335927 1.40542e+07)
(1.2101e+08 -419.754 -4825.09 1.2063e+08 372686 1.40535e+07)
(1.2101e+08 -836.586 -6408.95 1.20632e+08 334031 1.40547e+07)
(1.21007e+08 593.955 -8437.69 1.20628e+08 352778 1.40487e+07)
(1.21005e+08 105.813 -10768.6 1.20626e+08 351907 1.40478e+07)
(1.21002e+08 -645.71 -14342.4 1.20625e+08 352595 1.405e+07)
(1.20977e+08 27.3031 -34549.6 1.20622e+08 333647 1.40594e+07)
(1.20757e+08 -3034.38 -174729 1.20553e+08 368346 1.40295e+07)
(1.18779e+08 -12907.1 -1.13001e+06 1.19578e+08 328831 1.28778e+07)
(1.01085e+08 -14195.7 -5.14575e+06 1.10829e+08 275580 3.03812e+06)
(5.63598e+07 -20563.7 -2.85991e+07 1.03972e+08 294862 2.63666e+07)
(5.639e+07 10767.4 2.86183e+07 1.04114e+08 135546 2.64221e+07)
(1.01134e+08 7940.61 5.15604e+06 1.1097e+08 144256 3.0699e+06)
(1.18836e+08 6460.4 1.1375e+06 1.19731e+08 173172 1.29097e+07)
(1.20822e+08 1382.79 172137 1.20717e+08 184062 1.40724e+07)
(1.21043e+08 -337.13 30238.1 1.2079e+08 167229 1.41e+07)
(1.21078e+08 710.056 15094.8 1.20808e+08 167221 1.41015e+07)
(1.21078e+08 632.457 10971.2 1.20805e+08 185291 1.40968e+07)
(1.21079e+08 13.8125 8210.16 1.20805e+08 185428 1.40958e+07)
(1.21079e+08 -61.9835 6540.64 1.20805e+08 185881 1.40964e+07)
(1.21079e+08 -690.518 5070.15 1.20805e+08 185435 1.4097e+07)
(1.21084e+08 711.925 3818.78 1.20811e+08 167658 1.41038e+07)
(1.21083e+08 756.301 3197.37 1.20809e+08 204414 1.41042e+07)
(1.21081e+08 -609.511 1960.9 1.20806e+08 186655 1.41016e+07)
(1.21081e+08 -140.233 -3393.37 1.20807e+08 186122 1.41007e+07)
(1.21088e+08 -249.421 -46.6537 1.20817e+08 185821 1.41093e+07)
(1.2108e+08 39.243 3743.53 1.20804e+08 184482 1.40994e+07)
(1.21081e+08 543.517 -1177.27 1.20806e+08 185940 1.41002e+07)
(1.21078e+08 231.185 -1661.26 1.20801e+08 187173 1.40975e+07)
(1.21085e+08 -84.6295 -5755.94 1.20808e+08 186871 1.41095e+07)
(1.21088e+08 226.563 -3521.17 1.20819e+08 186905 1.41108e+07)
(1.21083e+08 -310.164 -5084.41 1.20805e+08 187712 1.41085e+07)
(1.21088e+08 -412.939 -6546.98 1.20818e+08 185062 1.41092e+07)
(1.21084e+08 -2.95323 -5257.82 1.20809e+08 186070 1.41068e+07)
(1.21077e+08 80.7187 -10813.3 1.20803e+08 184748 1.40967e+07)
(1.21076e+08 2.64223 -17858.3 1.20804e+08 185853 1.41003e+07)
(1.21055e+08 505.49 -31278.1 1.2081e+08 184785 1.4115e+07)
(1.20819e+08 -1226.31 -168789 1.20713e+08 203249 1.40687e+07)
(1.1884e+08 -7671.87 -1.13812e+06 1.19736e+08 191300 1.29161e+07)
(1.01134e+08 -8000.62 -5.15617e+06 1.10969e+08 143228 3.0713e+06)
(5.63888e+07 -10519.6 -2.86183e+07 1.04114e+08 155641 2.64173e+07)
(5.64078e+07 3356.97 2.86229e+07 1.04192e+08 48769.9 2.64544e+07)
(1.01155e+08 2167.31 5.16453e+06 1.11033e+08 44676.3 3.08355e+06)
(1.18866e+08 1928.4 1.13942e+06 1.19807e+08 53866.8 1.29307e+07)
(1.2085e+08 109.148 168362 1.20794e+08 56554.2 1.40859e+07)
(1.21088e+08 245.321 26888.6 1.20892e+08 40303.7 1.41356e+07)
(1.21116e+08 490.507 18603.4 1.20899e+08 57532.2 1.41301e+07)
(1.21111e+08 11.2611 14531.4 1.20885e+08 57337.1 1.41196e+07)
(1.21111e+08 32.189 8232.41 1.20885e+08 57620.2 1.41183e+07)
(1.21112e+08 -21.6881 6453.53 1.20885e+08 57792.6 1.41191e+07)
(1.21112e+08 -46.7298 1500.81 1.20886e+08 57607.5 1.4119e+07)
(1.21122e+08 183.427 3960.5 1.20901e+08 57713.4 1.41321e+07)
(1.21112e+08 -29.7012 6832.52 1.20881e+08 58276.5 1.41219e+07)
(1.21117e+08 -139.011 1929.71 1.20889e+08 57795.8 1.41323e+07)
(1.21114e+08 440.248 -132.625 1.20887e+08 58061 1.4123e+07)
(1.21114e+08 -365.586 -288.002 1.20886e+08 75374.2 1.41232e+07)
(1.21112e+08 -439.87 423.082 1.20883e+08 56414.9 1.41191e+07)
(1.21117e+08 433.39 -839.605 1.2089e+08 57889.3 1.41303e+07)
(1.21112e+08 136.349 -1748.21 1.20883e+08 58395.2 1.41215e+07)
(1.21114e+08 639.822 -2400.36 1.20886e+08 57530.5 1.41226e+07)
(1.21116e+08 84.6991 -3419.57 1.2089e+08 76405.8 1.41262e+07)
(1.21113e+08 -355.771 -5118.17 1.20884e+08 58479 1.41229e+07)
(1.21113e+08 -183.494 -6647.94 1.20886e+08 75020 1.41228e+07)
(1.21113e+08 -596.888 -8404.85 1.20886e+08 57475 1.41208e+07)
(1.2111e+08 72.8224 -10641 1.20881e+08 56483.4 1.41179e+07)
(1.21109e+08 654.566 -14424.2 1.20885e+08 57691.2 1.41237e+07)
(1.2108e+08 109.019 -31286.5 1.20876e+08 74967.5 1.41289e+07)
(1.20848e+08 -718.534 -172683 1.20786e+08 57987 1.40868e+07)
(1.18866e+08 -3051.15 -1.14068e+06 1.19805e+08 55007.3 1.29327e+07)