/*--------------------------------*- C++ -*----------------------------------*\
| =========                 |                                                 |
| \\      /  F ield         | OpenFOAM: The Open Source CFD Toolbox           |
|  \\    /   O peration     | Version:  2106                                  |
|   \\  /    A nd           | Website:  www.openfoam.com                      |
|    \\/     M anipulation  |                                                 |
\*---------------------------------------------------------------------------*/
FoamFile
{
    version     2.0;
    format      ascii;
    arch        "LSB;label=32;scalar=64";
    class       volTensorField;
    location    "557";
    object      testEpsilon;
}
// * * * * * * * * * * * * * * * * * * * * * * * * * * * * * * * * * * * * * //

dimensions      [0 0 0 0 0 0 0];

internalField   nonuniform List<tensor> 
9000
(
(-0.0855824 0.0038445 -0.105457 -0.00437174 -0.147119 -0.257504 0.201785 0.380322 -0.0253652)
(-0.0167736 0.0036868 -0.0028559 -0.0026113 -0.156475 -0.270372 0.0216264 0.40063 -0.06975)
(-0.00192932 0.00248166 0.002041 -0.00181022 -0.166385 -0.28706 0.00309352 0.425373 -0.059517)
(-0.000321075 0.000467054 0.000324634 -0.000365813 -0.167997 -0.290829 0.000581849 0.430919 -0.0573965)
(-5.53931e-05 -3.86587e-05 -2.82658e-05 2.27864e-05 -0.168078 -0.290941 0.000110883 0.431084 -0.0574083)
(-4.00245e-06 -2.30152e-05 -1.49675e-05 1.89386e-05 -0.167897 -0.290164 5.25091e-05 0.429885 -0.0576813)
(-1.43001e-06 -1.16579e-06 -1.96671e-07 1.11781e-06 -0.168021 -0.290722 5.21969e-05 0.43077 -0.0575658)
(-1.5602e-08 -3.0979e-05 -1.87659e-05 1.91539e-05 -0.16789 -0.290153 3.44257e-05 0.429876 -0.0576805)
(-9.45578e-07 3.99612e-05 2.54938e-05 -2.70535e-05 -0.167888 -0.290144 3.68973e-05 0.429861 -0.0576874)
(-6.55896e-06 1.75375e-05 8.87339e-06 -4.25799e-06 -0.168062 -0.290832 -2.40121e-05 0.430924 -0.0574687)
(2.40284e-06 -6.43944e-05 -4.45045e-05 5.18917e-05 -0.167944 -0.290393 -5.38244e-05 0.430251 -0.0575947)
(7.8353e-06 1.76007e-05 1.3794e-05 -1.86714e-05 -0.167763 -0.289684 6.50793e-05 0.429161 -0.0578337)
(-4.57443e-06 6.00285e-05 4.1318e-05 -4.91361e-05 -0.168052 -0.29078 7.59119e-05 0.430849 -0.0574957)
(-4.32473e-06 -1.20591e-05 -1.08504e-05 1.37073e-05 -0.168069 -0.290786 -4.97756e-05 0.430873 -0.0574844)
(3.44474e-06 6.10702e-06 3.95286e-06 -4.38489e-06 -0.167956 -0.29044 -2.90272e-07 0.430316 -0.0575785)
(-2.61473e-06 1.2912e-05 1.07962e-05 -1.52923e-05 -0.168065 -0.290843 5.02385e-05 0.430939 -0.0574696)
(-2.14918e-06 -1.8563e-05 -1.44893e-05 1.92331e-05 -0.168067 -0.290781 -5.78888e-05 0.430866 -0.0574895)
(2.83944e-08 1.41974e-06 1.50386e-06 9.21112e-08 -0.16796 -0.290449 -7.31933e-06 0.430329 -0.0575703)
(-2.16021e-06 -4.47229e-05 -2.82016e-05 3.14e-05 -0.168054 -0.2908 -2.07115e-05 0.430879 -0.0574846)
(4.62129e-06 -4.11573e-05 -2.6606e-05 2.84069e-05 -0.167774 -0.289727 -2.612e-05 0.429223 -0.0577988)
(2.72492e-06 5.9489e-05 4.042e-05 -4.78682e-05 -0.167875 -0.290098 3.91477e-05 0.429802 -0.0577124)
(-5.71261e-06 4.59111e-05 2.94299e-05 -3.28565e-05 -0.168061 -0.290815 -1.59235e-05 0.430894 -0.0574841)
(-3.5324e-06 -3.47241e-05 -2.20545e-05 2.29524e-05 -0.168065 -0.290845 -4.22936e-05 0.430941 -0.0574668)
(1.00411e-08 -7.20134e-06 -4.19595e-06 5.57232e-06 -0.167901 -0.290182 -4.98161e-05 0.429914 -0.0576676)
(-7.86634e-06 1.20101e-05 6.79932e-06 -8.70785e-06 -0.168052 -0.290785 -5.71839e-05 0.430853 -0.0574943)
(-5.39485e-05 -2.21623e-05 -1.34785e-05 2.6029e-05 -0.167912 -0.290279 -0.000175801 0.430061 -0.0576047)
(-0.000314536 -0.000438559 -0.000306204 0.000347203 -0.167867 -0.29035 -0.000577002 0.43019 -0.0575383)
(-0.00192992 -0.0024545 -0.00202156 0.00178349 -0.166381 -0.286978 -0.00303771 0.425268 -0.0595429)
(-0.0167764 -0.00367896 0.00286102 0.00260533 -0.156474 -0.270366 -0.0216283 0.400622 -0.0697513)
(-0.0855817 -0.00384648 0.105458 0.00437357 -0.147118 -0.257491 -0.201788 0.3803 -0.0253705)
(-0.0724043 0.00189494 -0.103176 -0.00191763 -0.0980736 -0.0790771 0.196138 0.215447 -0.128987)
(-0.0163977 0.00216287 -0.00426141 -0.000797956 -0.103197 -0.0826104 0.0203146 0.226109 -0.175004)
(-0.00180225 0.001533 0.000977666 -0.000667714 -0.109234 -0.0876371 0.00211067 0.240107 -0.171321)
(-0.000206457 0.000315876 0.000119139 -0.000173994 -0.1104 -0.0888298 0.000343108 0.243614 -0.170638)
(-2.74239e-05 -1.71409e-05 1.24493e-06 4.50064e-06 -0.110422 -0.0888675 6.6256e-05 0.243718 -0.170684)
(-4.58344e-06 -1.64628e-05 -2.53766e-06 9.96008e-06 -0.110202 -0.088682 6.70769e-05 0.2434 -0.170699)
(-2.18487e-06 4.25754e-07 1.25167e-06 6.16435e-07 -0.11037 -0.0887952 5.11914e-05 0.243536 -0.17071)
(-1.53769e-06 -9.99497e-06 5.93219e-06 6.56807e-06 -0.110179 -0.088681 -1.12258e-05 0.243409 -0.170696)
(-7.76236e-07 1.51365e-05 -5.56413e-06 -1.1019e-05 -0.11018 -0.0886798 7.36707e-05 0.243394 -0.170702)
(-1.20582e-06 1.08081e-05 -1.94704e-06 3.65533e-06 -0.110395 -0.0888311 6.91945e-05 0.243598 -0.170706)
(-4.73394e-07 -2.0989e-05 8.86061e-06 2.76662e-05 -0.110297 -0.0887388 -3.22224e-05 0.243856 -0.170676)
(7.2589e-08 4.18517e-07 -3.77383e-06 -1.21739e-05 -0.110077 -0.0885755 1.18227e-05 0.243622 -0.170666)
(-1.06481e-06 1.47076e-05 -7.99255e-06 -2.87005e-05 -0.110394 -0.0888033 5.49602e-05 0.243536 -0.17071)
(-7.66958e-07 3.50412e-06 3.85908e-06 9.08687e-06 -0.110371 -0.0888021 -5.03089e-07 0.243264 -0.17069)
(1.42024e-07 7.6098e-06 -7.75032e-07 -1.1109e-07 -0.11031 -0.088755 -2.18107e-06 0.243899 -0.170679)
(-3.58191e-07 -5.30198e-06 -2.49229e-06 -1.27354e-05 -0.110398 -0.0888357 -1.49918e-06 0.243612 -0.17071)
(-2.21701e-07 -2.12767e-06 3.28462e-06 1.24506e-05 -0.110369 -0.0888013 -4.61136e-06 0.243261 -0.170693)
(-1.54407e-07 4.2927e-06 -9.15422e-07 3.32907e-06 -0.110314 -0.0887579 -5.55459e-06 0.243904 -0.170675)
(-7.54985e-07 -1.81932e-05 5.52394e-06 1.3911e-05 -0.110385 -0.0888188 -5.41003e-05 0.243566 -0.17071)
(-8.10569e-07 -1.59247e-05 6.04295e-06 1.20913e-05 -0.110084 -0.0885918 -6.12426e-05 0.243679 -0.170665)
(-8.20508e-07 1.65461e-05 -9.99065e-06 -2.48569e-05 -0.110164 -0.0886594 1.97732e-05 0.243349 -0.17069)
(-9.70292e-07 1.91619e-05 -5.8928e-06 -1.53264e-05 -0.110405 -0.0888205 1.59697e-05 0.243567 -0.170713)
(-1.15889e-06 -1.11433e-05 6.46934e-06 8.95977e-06 -0.110397 -0.0888359 -8.18461e-05 0.243612 -0.170708)
(-1.64999e-06 -6.17907e-06 -1.2257e-06 2.69781e-06 -0.110196 -0.0886953 -4.54301e-05 0.243428 -0.170693)
(-5.2677e-06 1.01992e-05 2.07947e-06 -3.36398e-06 -0.110398 -0.0888118 -6.19627e-05 0.243538 -0.170711)
(-2.77973e-05 -1.58141e-06 7.4248e-06 2.14286e-05 -0.110214 -0.0887216 -0.000111866 0.243539 -0.170669)
(-0.00020623 -0.000311775 -0.000124846 0.000164871 -0.110289 -0.0887213 -0.000296719 0.243832 -0.170607)
(-0.00180239 -0.00152526 -0.000980813 0.000649991 -0.109198 -0.0875941 -0.00211155 0.239744 -0.171319)
(-0.0163977 -0.00215481 0.00426104 0.000796554 -0.103195 -0.0826072 -0.0203194 0.226102 -0.175003)
(-0.0724032 -0.0018975 0.103176 0.00192015 -0.0980773 -0.0790766 -0.196139 0.215426 -0.128987)
(-0.0763058 -0.00107831 -0.104041 0.0034237 -0.0575549 -0.00938277 0.197537 0.125717 -0.153402)
(-0.0165237 0.00145477 -0.0045679 0.00028793 -0.0602172 -0.0111292 0.0203009 0.132426 -0.201966)
(-0.00180452 0.00104112 0.000797126 -2.19019e-06 -0.063366 -0.01163 0.00194204 0.141067 -0.199929)
(-0.000186632 0.000229352 7.85606e-05 -3.29739e-05 -0.064102 -0.0117949 0.000263149 0.143585 -0.199628)
(-1.86023e-05 7.97267e-07 1.29371e-06 -2.55672e-06 -0.0641041 -0.0118059 0.000113537 0.143682 -0.199687)
(-4.77929e-06 -1.2539e-05 -5.06571e-07 2.26941e-06 -0.0639985 -0.0118167 7.17814e-05 0.143912 -0.199648)
(-2.10841e-06 3.5436e-06 1.6517e-09 8.622e-07 -0.0640746 -0.0117936 5.06302e-05 0.143548 -0.199696)
(-2.3427e-06 6.96273e-06 4.32042e-06 2.01018e-06 -0.0639922 -0.0118335 3.97357e-05 0.144125 -0.199667)
(-1.52812e-06 -3.24402e-06 -4.53336e-06 -2.47602e-06 -0.0640007 -0.0118256 1.99833e-05 0.144103 -0.19967)
(1.17809e-06 -5.87931e-06 -2.93166e-06 3.56237e-07 -0.064077 -0.0117966 2.10371e-05 0.143594 -0.199701)
(-7.63001e-07 -7.55416e-07 6.61844e-06 7.24839e-06 -0.0640656 -0.0118131 2.98826e-05 0.143561 -0.199687)
(-3.43805e-06 -1.7024e-06 8.88113e-07 -3.67181e-06 -0.0639777 -0.0118415 7.97544e-06 0.144083 -0.199648)
(-3.22281e-07 1.21816e-06 -4.00896e-06 -8.12969e-06 -0.0640567 -0.0117852 -3.64348e-05 0.143363 -0.199656)
(1.39316e-06 4.77249e-06 -1.18871e-06 2.88244e-06 -0.0640085 -0.0117996 2.10513e-06 0.143604 -0.199682)
(-9.19718e-07 6.2502e-07 -2.75904e-06 4.09423e-07 -0.0640706 -0.0118128 2.68811e-05 0.143593 -0.199691)
(-1.02405e-07 1.00152e-06 1.54748e-06 -3.14938e-06 -0.0640789 -0.011799 -3.54309e-05 0.143609 -0.199702)
(1.06372e-06 -1.66011e-06 1.07076e-06 2.57134e-06 -0.0640081 -0.0118005 -3.67585e-07 0.143602 -0.199685)
(3.20484e-07 -1.71354e-06 -1.99829e-06 2.29741e-06 -0.0640726 -0.011813 2.56006e-05 0.143592 -0.199691)
(-4.07754e-07 1.18224e-06 5.02431e-06 3.50684e-06 -0.0640708 -0.0117908 1.32189e-06 0.143569 -0.1997)
(-3.13229e-06 2.93322e-06 5.26554e-06 2.68378e-06 -0.0639816 -0.0118472 -6.37461e-06 0.144098 -0.199653)
(-2.75863e-06 -4.71023e-06 -5.31873e-06 -6.33449e-06 -0.0639828 -0.0118286 -3.70846e-05 0.144108 -0.199657)
(1.05073e-06 -6.26554e-07 -5.87313e-06 -4.48535e-06 -0.0640676 -0.0117855 -4.05918e-05 0.143381 -0.199683)
(7.24489e-08 7.10597e-06 2.97589e-06 3.06607e-06 -0.064077 -0.0117985 -2.90033e-05 0.14361 -0.199703)
(-2.45471e-06 -7.36785e-06 6.35044e-07 -5.84388e-07 -0.0640112 -0.0118322 -4.34095e-05 0.144123 -0.199667)
(-4.12019e-06 8.43077e-06 1.53199e-06 -3.56069e-07 -0.0640717 -0.0117827 -6.29143e-05 0.143357 -0.199676)
(-2.03014e-05 -2.92872e-07 4.61532e-06 9.54397e-06 -0.0640239 -0.0118381 -9.93704e-05 0.144211 -0.19965)
(-0.000188824 -0.000235303 -8.06877e-05 3.06111e-05 -0.0640792 -0.0118067 -0.000300028 0.143522 -0.19961)
(-0.00180358 -0.00103588 -0.000798753 -2.55707e-06 -0.063293 -0.0116222 -0.0019542 0.14102 -0.199916)
(-0.0165224 -0.00145488 0.00456452 -0.000288911 -0.0602151 -0.011128 -0.0202765 0.132421 -0.201962)
(-0.0763029 0.0010736 0.104039 -0.00341854 -0.0575642 -0.00937938 -0.197534 0.125688 -0.153403)
(-0.081879 -0.00282264 -0.107657 0.00645352 -0.0351672 0.00543995 0.204399 0.0763812 -0.154291)
(-0.0170829 0.00100065 -0.00471086 0.000759667 -0.0372331 0.00345658 0.0209891 0.0810789 -0.205377)
(-0.00186643 0.000756048 0.000844517 0.000233729 -0.0391079 0.00393211 0.002134 0.0872861 -0.203493)
(-0.00020653 0.000168267 8.39749e-05 3.25596e-05 -0.0396308 0.00401795 0.000298856 0.0889567 -0.203203)
(-2.03752e-05 3.55686e-06 -3.10536e-06 -5.08901e-06 -0.0396401 0.00401804 8.82281e-05 0.0890493 -0.203268)
(-3.89965e-06 -1.0578e-05 -8.88845e-08 -2.89427e-06 -0.0395811 0.0039884 7.24233e-05 0.0888726 -0.203235)
(-2.23671e-06 1.67378e-06 -2.12433e-06 9.01229e-07 -0.0396054 0.00401568 6.96759e-05 0.0888209 -0.203264)
(-2.20533e-06 4.78623e-06 -4.5615e-07 -1.69428e-06 -0.0396226 0.003986 3.84196e-05 0.0890196 -0.203286)
(-1.10702e-06 -1.82207e-06 1.83107e-06 2.824e-06 -0.0396169 0.00399161 2.2692e-05 0.0888669 -0.203248)
(7.39061e-07 -2.16749e-06 5.43112e-07 2.87764e-06 -0.039615 0.00401649 2.23141e-05 0.0889887 -0.20328)
(-1.279e-06 -1.12562e-06 -1.19266e-07 -2.79513e-06 -0.0396101 0.00401111 2.90699e-05 0.0889677 -0.203276)
(-3.00303e-06 2.19774e-06 1.80077e-06 -6.64269e-07 -0.0396146 0.00398067 -1.14895e-05 0.0889809 -0.203253)
(2.46037e-07 8.54555e-06 3.8101e-07 3.31952e-06 -0.0395694 0.00400171 -8.08402e-06 0.089006 -0.203259)
(9.40866e-07 7.23859e-07 -1.64664e-06 1.30899e-06 -0.0395905 0.00399313 2.22548e-05 0.0893438 -0.203285)
(-1.06434e-06 -6.46328e-06 -6.56529e-07 -5.01127e-07 -0.0396079 0.00401106 -8.54716e-07 0.0889962 -0.203279)
(7.41925e-08 7.18918e-06 -3.30656e-08 9.92102e-07 -0.0396164 0.00401356 -7.44418e-06 0.0890048 -0.203283)
(8.67657e-07 -8.76995e-07 4.90997e-07 -3.51706e-07 -0.0395912 0.00399306 -6.18236e-07 0.0893408 -0.203288)
(3.26925e-08 -8.24584e-06 1.02614e-06 -1.99094e-07 -0.0396081 0.00401089 -1.05042e-06 0.0889953 -0.20328)
(-6.7771e-07 2.10888e-08 -1.31358e-06 -3.13418e-06 -0.0396118 0.00401902 -8.24976e-07 0.0889682 -0.203257)
(-2.77884e-06 1.68756e-06 -1.53325e-06 -3.18013e-06 -0.0396163 0.00398038 -9.17958e-06 0.0890023 -0.203279)
(-2.25433e-06 -6.68944e-07 2.35114e-06 2.90302e-06 -0.0396181 0.00398467 -5.44483e-05 0.0890011 -0.20326)
(9.0982e-07 3.15868e-07 1.31508e-07 2.81581e-06 -0.0395801 0.00401281 -3.94517e-05 0.088982 -0.203252)
(-3.78699e-07 1.4661e-07 -2.87966e-06 -2.6946e-06 -0.0396124 0.0040146 -1.08744e-05 0.0890079 -0.203284)
(-2.33442e-06 -5.12417e-06 1.93093e-06 -2.56792e-06 -0.0396217 0.00399137 -6.34426e-05 0.0888751 -0.20327)
(-3.24203e-06 7.65877e-06 8.9104e-07 2.04868e-06 -0.0395745 0.00401288 -6.31714e-05 0.0888289 -0.203228)
(-2.16038e-05 -3.06718e-06 2.62921e-06 3.44174e-06 -0.0396477 0.00398911 -7.5018e-05 0.089076 -0.203264)
(-0.00020865 -0.000165602 -8.16567e-05 -2.9747e-05 -0.0396172 0.00401108 -0.000304562 0.0889127 -0.203192)
(-0.00186629 -0.000752451 -0.000845067 -0.000232483 -0.039084 0.0039128 -0.00214873 0.0875902 -0.203466)
(-0.0170809 -0.00100904 0.0047096 -0.000762002 -0.0372316 0.00345685 -0.0209952 0.0810757 -0.205375)
(-0.0818832 0.00281409 0.107653 -0.00644356 -0.0351578 0.00544539 -0.204391 0.076222 -0.154277)
(-0.0860596 -0.00311454 -0.112082 0.00667145 -0.0220586 0.00482888 0.212825 0.0479414 -0.152284)
(-0.0177676 0.000666642 -0.00486947 0.000874688 -0.0235784 0.00285466 0.0219754 0.0506943 -0.205728)
(-0.00194995 0.000561585 0.000909401 0.000263264 -0.0249321 0.0033163 0.00241154 0.0554682 -0.203766)
(-0.000234396 0.00012291 9.57461e-05 4.96331e-05 -0.0252872 0.00340422 0.000327829 0.0565178 -0.203435)
(-2.56931e-05 1.07332e-05 -4.61657e-06 3.79365e-08 -0.0252883 0.0034069 8.78267e-05 0.0564951 -0.203495)
(-3.58124e-06 -5.61045e-06 -9.79079e-07 -3.82462e-06 -0.0252442 0.00338912 5.04474e-05 0.0568018 -0.203526)
(-1.86841e-06 -4.75986e-06 -4.7826e-07 -8.84008e-07 -0.0252448 0.00339962 6.57614e-05 0.0564376 -0.203503)
(-1.95814e-06 4.66804e-06 -4.93067e-07 -1.90628e-07 -0.0252824 0.0034078 3.61465e-05 0.0565791 -0.203528)
(-6.1374e-07 -1.71936e-06 1.56406e-06 1.41263e-06 -0.0252562 0.00339979 2.54034e-05 0.0565898 -0.203516)
(5.42638e-08 -4.50877e-06 9.68052e-07 1.36938e-07 -0.0252853 0.00340237 4.07909e-05 0.0565642 -0.203502)
(-1.47138e-06 -6.85047e-07 -5.44648e-07 -3.40567e-06 -0.0252672 0.00340193 2.4658e-05 0.0564435 -0.203506)
(-2.21512e-06 6.41952e-06 -9.91045e-07 1.54384e-06 -0.0252829 0.00340509 7.69561e-06 0.0565627 -0.203511)
(7.23707e-08 6.05248e-06 -1.51684e-06 3.76828e-06 -0.0252728 0.00338478 -4.26495e-06 0.0567782 -0.20353)
(6.29028e-07 -2.9184e-06 6.80681e-07 4.59163e-07 -0.0252999 0.00339571 3.56796e-06 0.0566229 -0.203525)
(-9.83096e-07 -4.55749e-06 1.32625e-06 2.64445e-07 -0.0252775 0.00340171 2.25531e-07 0.0565725 -0.20352)
(-7.25204e-08 4.34494e-06 -2.05211e-06 7.17685e-07 -0.0252878 0.00340361 -6.85323e-06 0.0565734 -0.203521)
(8.2548e-07 -8.12239e-09 5.36139e-07 -6.65342e-07 -0.0253005 0.00339653 -1.94399e-06 0.0566192 -0.203529)
(-2.3601e-07 -5.8432e-06 3.19416e-06 -1.02859e-06 -0.0252771 0.00340117 -5.72443e-07 0.0565722 -0.203521)
(-1.00396e-06 -4.61438e-07 -1.07654e-06 -2.9599e-06 -0.0252849 0.00340117 -4.94212e-06 0.0565624 -0.203492)
(-1.92485e-06 1.68173e-06 -1.60413e-06 -1.88667e-06 -0.0252817 0.00340474 -1.294e-05 0.0565675 -0.203523)
(-1.55944e-06 2.54016e-06 1.16584e-06 2.95276e-06 -0.0252822 0.00340458 -2.98796e-05 0.056579 -0.203518)
(-6.87989e-08 5.05881e-07 1.12115e-07 3.23307e-06 -0.0252603 0.00338802 -3.4699e-05 0.0566759 -0.203519)
(-1.0043e-06 -1.22661e-06 -1.31188e-06 -1.10395e-06 -0.0252789 0.00340155 -4.93035e-05 0.0565814 -0.203525)
(-1.50605e-06 2.22127e-07 2.91198e-07 -2.23161e-06 -0.0252636 0.00340895 -6.16871e-05 0.056572 -0.203517)
(-2.91826e-06 3.2331e-06 1.0796e-06 1.74585e-06 -0.0252402 0.00338234 -4.31644e-05 0.0566641 -0.203506)
(-2.66605e-05 -8.83627e-06 4.25579e-06 -7.63494e-07 -0.025303 0.00340871 -7.78073e-05 0.0566122 -0.203503)
(-0.000236009 -0.000122556 -9.59487e-05 -5.02539e-05 -0.0252856 0.00340701 -0.000331729 0.0564794 -0.203423)
(-0.00195003 -0.000558759 -0.000909599 -0.000260375 -0.0249491 0.00330317 -0.00242065 0.0555089 -0.203761)
(-0.0177646 -0.000669642 0.00487104 -0.000873948 -0.0235778 0.00285516 -0.022002 0.0506906 -0.205727)
(-0.0860665 0.00310948 0.112057 -0.00666243 -0.0220267 0.00482613 -0.212775 0.0479244 -0.152275)
(-0.0887442 -0.0025949 -0.115943 0.00539151 -0.0139509 0.00256131 0.220182 0.0303739 -0.151257)
(-0.0183645 0.000425959 -0.00501338 0.000792254 -0.0148828 0.000987833 0.0229216 0.0317692 -0.206542)
(-0.00203145 0.000414302 0.000954429 0.00022537 -0.0159397 0.00130451 0.00267157 0.0350673 -0.204479)
(-0.000259175 9.70354e-05 0.000102095 5.03409e-05 -0.0161928 0.00135436 0.000367105 0.0360745 -0.204177)
(-3.10667e-05 1.21496e-05 -6.12525e-06 3.58109e-06 -0.0161815 0.00135531 0.000104945 0.036155 -0.204246)
(-4.08404e-06 -1.89407e-06 -1.54495e-06 -3.10605e-06 -0.0161991 0.00134833 6.31531e-05 0.0363207 -0.204285)
(-1.50991e-06 -5.97678e-06 1.61256e-06 -1.72655e-06 -0.016154 0.00134635 4.85853e-05 0.0361748 -0.204265)
(-1.74601e-06 2.50887e-06 -4.23164e-07 5.6087e-07 -0.0161941 0.00135801 4.99072e-05 0.0361389 -0.204272)
(-1.04151e-06 -2.39805e-06 7.44868e-07 -9.35929e-07 -0.0161866 0.00134959 2.60631e-05 0.0362894 -0.204284)
(-2.24601e-07 -4.36083e-06 9.71973e-07 -1.34752e-06 -0.0161865 0.00134886 9.37366e-06 0.0360451 -0.204258)
(-9.97622e-07 -6.48212e-07 4.24561e-07 -2.59588e-06 -0.0161658 0.00134894 2.11972e-05 0.0361258 -0.204261)
(-1.56824e-06 1.07883e-06 -1.62869e-06 -7.89267e-07 -0.0161884 0.00135246 2.2964e-05 0.0360376 -0.204234)
(2.91011e-08 5.14733e-06 -1.49587e-06 4.5193e-06 -0.0162061 0.00135132 -3.30579e-07 0.0360612 -0.20426)
(2.40099e-07 -2.2333e-07 1.73932e-06 1.92136e-06 -0.0162064 0.0013608 4.88581e-06 0.0361624 -0.20427)
(-1.01264e-06 -4.04583e-06 9.23255e-07 -1.051e-06 -0.0161929 0.00135303 9.37902e-07 0.0361342 -0.204265)
(-1.11765e-07 2.59782e-06 -1.06995e-06 1.09568e-06 -0.0161904 0.00135388 -6.26306e-06 0.0360403 -0.204256)
(5.18403e-07 1.27655e-06 3.27182e-09 3.4356e-07 -0.0162064 0.00136153 -2.74385e-06 0.0361581 -0.204272)
(-4.26219e-07 -5.12231e-06 1.95456e-06 -3.36131e-06 -0.0161922 0.0013528 -2.20649e-06 0.0361357 -0.204268)
(-8.49327e-07 -9.12179e-07 -5.98557e-07 -2.05228e-06 -0.0161898 0.00134373 -7.66435e-06 0.0360462 -0.204236)
(-1.5963e-06 2.2243e-06 -8.51751e-07 4.6232e-07 -0.0161989 0.00135823 -1.37467e-05 0.0361271 -0.204267)
(-1.23039e-06 3.61267e-06 -9.92864e-07 2.31526e-06 -0.0162019 0.00135643 -4.21604e-05 0.0361349 -0.204248)
(9.84777e-08 9.61988e-07 -4.74642e-07 2.79237e-06 -0.0161829 0.00134609 -3.16688e-05 0.0361648 -0.20427)
(-1.47163e-06 -5.1271e-07 1.30582e-06 -3.40431e-07 -0.0161928 0.00135263 -1.79769e-05 0.0361418 -0.204273)
(-1.76446e-06 2.61974e-06 -1.90946e-06 -1.29323e-06 -0.0161838 0.00135225 -6.18851e-05 0.0361928 -0.204251)
(-2.94841e-06 -2.19125e-07 8.42871e-07 1.07014e-06 -0.0161751 0.00134033 -5.81374e-05 0.0362088 -0.204265)
(-3.20038e-05 -1.21324e-05 7.56175e-06 -4.38863e-06 -0.0162123 0.00135986 -8.18051e-05 0.0361537 -0.204246)
(-0.000260572 -9.48261e-05 -0.000102765 -4.9864e-05 -0.0161885 0.00135451 -0.000389068 0.0359567 -0.204135)
(-0.00203103 -0.000410891 -0.000955437 -0.000222243 -0.0159482 0.00130986 -0.00267525 0.0350798 -0.204496)
(-0.0183613 -0.000424551 0.0050142 -0.000790783 -0.0148826 0.000989371 -0.0229276 0.0317648 -0.206539)
(-0.0887433 0.00259837 0.115915 -0.00539308 -0.0139384 0.00255409 -0.220127 0.0305118 -0.151261)
(-0.0904015 -0.00185956 -0.118774 0.00378936 -0.00882108 0.00124342 0.225582 0.0192349 -0.150978)
(-0.0188008 0.000268869 -0.00512083 0.000627491 -0.00929896 0.000148299 0.0236905 0.019835 -0.207534)
(-0.00209833 0.000299588 0.000982707 0.000176026 -0.0101004 0.000350297 0.00287294 0.0222767 -0.20547)
(-0.000278753 7.45553e-05 0.000105905 4.19729e-05 -0.0103129 0.000378283 0.000445068 0.0229572 -0.205149)
(-3.63825e-05 9.47445e-06 -5.82315e-06 4.08231e-06 -0.0103203 0.000377962 0.000110357 0.023145 -0.205217)
(-4.64277e-06 -1.08952e-07 -2.77014e-06 -1.899e-06 -0.0103376 0.000384818 4.62038e-05 0.023053 -0.205249)
(-1.13503e-06 -3.75116e-06 1.45757e-06 -1.63201e-06 -0.0103016 0.000372104 4.82995e-05 0.0231442 -0.205235)
(-1.80002e-06 -1.84197e-06 1.54895e-07 -9.23178e-07 -0.010319 0.000378938 4.84488e-05 0.0230177 -0.205247)
(-9.95419e-07 -2.16711e-07 -2.649e-07 -2.85503e-07 -0.0103286 0.000379321 1.14687e-05 0.0230341 -0.20525)
(-2.77727e-07 -3.66649e-07 8.38378e-07 -9.2859e-09 -0.0102971 0.000374095 2.36091e-05 0.0230185 -0.205244)
(-1.35973e-06 -1.05675e-06 1.75791e-07 -2.45761e-06 -0.0103072 0.000373487 1.8565e-05 0.0231271 -0.205252)
(-7.92085e-07 -1.63297e-06 -5.15127e-07 -1.86095e-06 -0.0103024 0.000371679 -6.54096e-06 0.0230168 -0.205234)
(6.14496e-07 2.45801e-06 1.50125e-07 3.30728e-06 -0.0103032 0.000380199 1.74015e-05 0.0229446 -0.20523)
(-4.85033e-07 -2.69257e-07 1.02274e-06 1.31483e-06 -0.0103258 0.000381686 2.01147e-05 0.0230319 -0.205243)
(-1.14823e-06 -1.36833e-06 -5.82494e-08 -4.43461e-07 -0.0103186 0.00037642 -1.33926e-05 0.0230139 -0.205242)
(2.06392e-07 1.64325e-06 -3.52579e-07 1.21973e-06 -0.0103002 0.000375871 -5.08451e-06 0.0230156 -0.205239)
(-6.59185e-08 -3.72557e-07 3.2158e-07 -4.0379e-07 -0.0103257 0.000381757 1.10609e-05 0.0230288 -0.205244)
(-7.15179e-07 -2.53652e-06 -3.65447e-07 -2.84734e-06 -0.010318 0.000377084 -1.89733e-05 0.0230146 -0.205243)
(-2.39237e-07 -1.78388e-06 9.4665e-09 -2.07694e-06 -0.010304 0.000368 -9.24067e-06 0.0230192 -0.20524)
(-1.05135e-06 -7.21914e-07 9.35509e-07 -1.01357e-06 -0.0103145 0.000377569 4.27625e-07 0.0229267 -0.205233)
(-1.09343e-06 5.7413e-06 -1.26245e-06 3.89146e-06 -0.0103214 0.000373691 -2.52701e-05 0.0229419 -0.205216)
(-5.99936e-07 2.31499e-06 -6.48984e-07 3.65835e-06 -0.0103189 0.000379658 -2.88749e-05 0.0231487 -0.205257)
(-1.82142e-06 -1.41903e-06 -8.04641e-08 -1.25617e-06 -0.0103182 0.000377299 -4.74767e-05 0.0230203 -0.205248)
(-1.22394e-06 3.76854e-06 -2.16837e-06 2.54363e-07 -0.0103106 0.000373149 -6.14309e-05 0.0230424 -0.205241)
(-3.53734e-06 -2.46695e-06 2.60161e-06 -2.60228e-07 -0.0103061 0.000376922 -4.26799e-05 0.0230771 -0.205241)
(-3.68473e-05 -1.1512e-05 7.09237e-06 -6.06122e-06 -0.0103226 0.000379079 -0.000101752 0.0229413 -0.20521)
(-0.00027958 -6.97331e-05 -0.000105948 -3.8475e-05 -0.010301 0.000369621 -0.000450426 0.0229486 -0.205114)
(-0.00209822 -0.000297592 -0.000982628 -0.000173823 -0.0101058 0.000357435 -0.00286517 0.0222766 -0.205465)
(-0.0187988 -0.000267677 0.00511988 -0.000627786 -0.00930009 0.000151412 -0.0236952 0.0198277 -0.207528)
(-0.0903967 0.00186598 0.118759 -0.00379837 -0.00882799 0.00124159 -0.225556 0.0192601 -0.150982)
(-0.0914203 -0.00121557 -0.120645 0.00244161 -0.00556911 0.00065228 0.229151 0.0121466 -0.150953)
(-0.0190872 0.000170103 -0.005192 0.000452239 -0.00576983 -5.17897e-05 0.0242871 0.0123486 -0.208325)
(-0.00214855 0.000211515 0.00100043 0.000132934 -0.00637978 7.48763e-05 0.00303067 0.0141541 -0.206271)
(-0.000293564 5.30393e-05 0.000107628 3.03728e-05 -0.00653825 9.18834e-05 0.000467504 0.0145587 -0.205942)
(-3.98411e-05 7.2103e-06 -4.81833e-06 3.66107e-06 -0.00655977 9.03274e-05 0.000113882 0.0146358 -0.206009)
(-5.22691e-06 1.85581e-06 -2.71656e-06 2.63286e-07 -0.00655848 9.89588e-05 5.82855e-05 0.0146318 -0.206043)
(-1.31475e-06 -2.24837e-06 4.36566e-07 -1.63839e-06 -0.0065528 9.22417e-05 4.59473e-05 0.0147297 -0.206052)
(-1.4767e-06 -2.88412e-06 1.02015e-06 -1.30897e-06 -0.00654637 9.16142e-05 3.41992e-05 0.0146114 -0.206045)
(-8.58733e-07 1.97242e-06 -2.2363e-07 1.14144e-06 -0.00655206 9.64091e-05 2.57341e-05 0.0146196 -0.206046)
(-6.59023e-07 -8.40418e-08 -1.94697e-07 -4.35991e-07 -0.00653883 9.31703e-05 2.3302e-05 0.0147086 -0.20605)
(-1.36795e-06 -1.71699e-06 -5.86663e-08 -2.72568e-06 -0.00655018 9.20415e-05 1.59903e-05 0.014619 -0.206043)
(-4.1526e-07 1.86596e-06 -2.86379e-07 9.40487e-07 -0.00653436 8.68027e-05 -6.27744e-06 0.0146355 -0.20604)
(6.64255e-07 4.67164e-07 5.05545e-07 1.87481e-06 -0.00652772 9.06313e-05 5.98612e-06 0.0147192 -0.206042)
(-5.10049e-07 -3.3054e-06 9.83528e-07 -1.4369e-06 -0.0065498 9.25088e-05 1.95579e-05 0.0146208 -0.20604)
(-1.03166e-06 1.08691e-06 -2.39711e-07 7.79215e-07 -0.0065472 8.91278e-05 4.02887e-07 0.0146082 -0.206041)
(-1.03831e-07 1.18732e-06 -2.52166e-09 1.16672e-06 -0.00654013 9.15344e-05 -3.8568e-06 0.0147077 -0.206047)
(-2.95012e-07 -2.28555e-06 2.45813e-07 -1.62431e-06 -0.00654958 9.22317e-05 -3.48737e-06 0.0146183 -0.206042)
(-7.60849e-07 -7.87221e-07 -7.96785e-07 -1.83289e-06 -0.00654574 9.04147e-05 -6.55279e-06 0.0146092 -0.206041)
(-4.82573e-07 -2.06283e-07 -5.01446e-07 -6.70637e-07 -0.00653944 8.90381e-05 -2.35546e-05 0.0146304 -0.206041)
(-4.02624e-07 -1.24134e-06 2.86451e-07 -1.25022e-06 -0.00653004 8.73822e-05 -2.82416e-05 0.014608 -0.206035)
(-2.96003e-07 2.71605e-06 -5.7507e-07 2.2573e-06 -0.00652651 8.28584e-05 -9.09423e-06 0.0145436 -0.206031)
(-9.31048e-07 1.59729e-06 2.46956e-07 3.02214e-06 -0.00655715 9.53394e-05 -1.2442e-05 0.014632 -0.206046)
(-2.15243e-06 1.1558e-06 3.94715e-09 6.09404e-07 -0.00654587 9.16098e-05 -3.40962e-05 0.0146137 -0.206046)
(-1.56527e-06 5.03817e-06 -1.98484e-06 2.34013e-06 -0.00654621 9.28399e-05 -6.02489e-05 0.0147246 -0.206052)
(-4.21152e-06 -2.6171e-06 2.02886e-06 -8.85671e-07 -0.00654202 9.64134e-05 -6.95457e-05 0.0147378 -0.206044)
(-3.96467e-05 -1.11149e-05 6.1015e-06 -7.33961e-06 -0.0065342 8.98125e-05 -9.39959e-05 0.014616 -0.206011)
(-0.000294124 -5.14646e-05 -0.000107094 -2.89395e-05 -0.00653299 8.3e-05 -0.000454933 0.0145744 -0.205934)
(-0.0021489 -0.000210709 -0.000999078 -0.000131024 -0.00638403 7.74008e-05 -0.00303584 0.0141526 -0.206263)
(-0.0190862 -0.000168991 0.00519103 -0.000452264 -0.00577216 -5.24107e-05 -0.024294 0.0123466 -0.2083)
(-0.0914169 0.00122148 0.120636 -0.00245037 -0.00557343 0.000656832 -0.229137 0.0121601 -0.150958)
(-0.0920476 -0.000750376 -0.121804 0.00149021 -0.00351618 0.000380155 0.231363 0.00764974 -0.150977)
(-0.0192626 0.000106735 -0.00523631 0.000302605 -0.0035751 -5.16604e-05 0.0246855 0.00768303 -0.208848)
(-0.0021827 0.000145903 0.00101144 9.82579e-05 -0.00402857 2.85443e-05 0.00314978 0.00885562 -0.206796)
(-0.000304608 3.85571e-05 0.000108995 2.2901e-05 -0.00414001 3.6956e-05 0.000494843 0.00921115 -0.206479)
(-4.24044e-05 5.42932e-06 -4.40806e-06 3.17211e-06 -0.00415766 3.66954e-05 0.000115097 0.00926817 -0.206561)
(-5.70266e-06 1.28523e-06 -2.38728e-06 5.42581e-07 -0.00415615 3.93518e-05 5.796e-05 0.00926754 -0.206581)
(-1.44948e-06 -1.33052e-06 -1.13541e-08 -1.23195e-06 -0.00416137 4.18677e-05 4.45437e-05 0.00927381 -0.206586)
(-1.24405e-06 -1.69469e-06 9.8836e-07 -8.09249e-07 -0.00414869 3.65483e-05 3.39087e-05 0.00925459 -0.206585)
(-8.20824e-07 1.29308e-06 4.63292e-08 4.55689e-07 -0.00415168 3.8467e-05 2.64938e-05 0.0092595 -0.206584)
(-1.05115e-06 1.00067e-08 -3.51358e-08 -4.64414e-07 -0.00415511 3.96873e-05 2.28666e-05 0.0092664 -0.20657)
(-1.08444e-06 -1.64701e-07 -1.09774e-06 -9.92341e-07 -0.00415104 4.02191e-05 9.51828e-07 0.00925927 -0.206581)
(1.28013e-07 2.85857e-06 -7.97158e-07 1.87706e-06 -0.00413951 3.53164e-05 8.10715e-06 0.00926791 -0.206577)
(1.39019e-07 -6.28413e-07 1.29135e-06 6.28573e-07 -0.00415172 3.81315e-05 2.03866e-05 0.00935836 -0.206586)
(-7.04151e-07 -4.16634e-06 7.22043e-07 -2.6564e-06 -0.00415045 3.66722e-05 4.9575e-06 0.00926157 -0.20658)
(-6.27507e-07 5.64687e-07 -2.53123e-07 1.12322e-07 -0.00415269 3.57714e-05 5.32601e-07 0.00925082 -0.206581)
(-2.74313e-07 1.16747e-06 2.68194e-07 1.25273e-06 -0.00415488 3.70921e-05 -2.85367e-06 0.00926715 -0.20657)
(-6.65841e-07 -1.49442e-06 9.76441e-08 -9.12428e-07 -0.00414991 3.64113e-05 -4.39616e-06 0.00925994 -0.206582)
(-5.24444e-07 -5.06896e-07 -1.00417e-06 -1.70531e-06 -0.00414888 3.43322e-05 -2.05483e-05 0.0092537 -0.206582)
(-1.22702e-07 1.35674e-06 -5.97033e-07 7.13224e-07 -0.00413666 3.4442e-05 -9.96242e-06 0.00919687 -0.206557)
(-4.65758e-07 1.86345e-06 -3.00426e-07 1.69579e-06 -0.00414687 3.52739e-05 -1.50939e-05 0.00933877 -0.206583)
(-2.38959e-07 3.18042e-07 3.28999e-07 8.11595e-07 -0.0041299 3.16648e-05 -2.11131e-05 0.00935019 -0.206584)
(-9.29515e-07 -1.55789e-06 1.10129e-06 9.85522e-08 -0.0041551 4.12875e-05 -1.13607e-05 0.00926761 -0.206583)
(-1.95782e-06 7.70439e-07 -5.80374e-07 4.13894e-07 -0.00414835 3.70698e-05 -3.37854e-05 0.00925706 -0.206585)
(-1.52295e-06 4.53986e-06 -1.20765e-06 2.87795e-06 -0.00415853 3.97348e-05 -4.52386e-05 0.0092731 -0.206585)
(-5.47328e-06 -6.54752e-08 1.99613e-06 5.34513e-07 -0.00416108 4.40226e-05 -5.61602e-05 0.00936662 -0.206584)
(-4.24581e-05 -9.70738e-06 4.4097e-06 -7.19171e-06 -0.00414623 3.61045e-05 -0.000126157 0.00934434 -0.206561)
(-0.000304317 -3.97e-05 -0.00010843 -2.38717e-05 -0.00412946 3.11487e-05 -0.000495645 0.00914401 -0.206464)
(-0.00218288 -0.000145425 -0.00100971 -9.64855e-05 -0.00403137 2.78969e-05 -0.00313955 0.00885358 -0.206788)
(-0.0192627 -0.000105556 0.00523577 -0.000301981 -0.00357587 -5.60188e-05 -0.0246888 0.00768175 -0.208843)
(-0.0920464 0.000755272 0.121802 -0.00149697 -0.00351683 0.000384679 -0.23136 0.00765823 -0.15098)
(-0.0924332 -0.000447368 -0.122495 0.000881059 -0.00222669 0.00023547 0.232682 0.00480023 -0.151)
(-0.0193656 6.76242e-05 -0.00526233 0.000192768 -0.00222328 -2.50741e-05 0.0249426 0.00478026 -0.209169)
(-0.00220449 9.85321e-05 0.00101815 7.05961e-05 -0.0025419 2.53847e-05 0.00323643 0.00556079 -0.207126)
(-0.000312581 2.72222e-05 0.000109258 1.67824e-05 -0.00262691 2.83199e-05 0.000515852 0.00581461 -0.206815)
(-4.43128e-05 3.98308e-06 -4.33917e-06 2.50592e-06 -0.00264495 2.74406e-05 0.000119932 0.00585864 -0.206889)
(-6.10772e-06 1.11448e-06 -1.6821e-06 9.79386e-07 -0.00264026 2.84406e-05 5.78017e-05 0.00585679 -0.20692)
(-1.58512e-06 -7.56737e-07 -1.24117e-07 -8.02245e-07 -0.00264287 3.27057e-05 4.34423e-05 0.0058592 -0.206923)