/*--------------------------------*- C++ -*----------------------------------*\
| =========                 |                                                 |
| \\      /  F ield         | OpenFOAM: The Open Source CFD Toolbox           |
|  \\    /   O peration     | Version:  2106                                  |
|   \\  /    A nd           | Website:  www.openfoam.com                      |
|    \\/     M anipulation  |                                                 |
\*---------------------------------------------------------------------------*/
FoamFile
{
    version     2.0;
    format      ascii;
    arch        "LSB;label=32;scalar=64";
    class       volVectorField;
    location    "309";
    object      D;
}
// * * * * * * * * * * * * * * * * * * * * * * * * * * * * * * * * * * * * * //

dimensions      [0 1 0 0 0 0 0];

internalField   nonuniform List<vector> 
9000
(
(6.85939e-05 5.03634e-05 7.22767e-05)
(2.4346e-05 6.63833e-05 9.23025e-05)
(6.94808e-06 8.11826e-05 8.79077e-05)
(2.45405e-06 7.63408e-05 5.71946e-05)
(3.85488e-06 5.99217e-05 3.85231e-05)
(6.06759e-06 6.21635e-05 3.5164e-05)
(7.20592e-06 5.8427e-05 4.41863e-05)
(5.62836e-06 5.77225e-05 7.30821e-05)
(3.3541e-06 7.46914e-05 6.65234e-05)
(1.66018e-06 5.78529e-05 7.34059e-05)
(-4.09526e-06 5.56811e-05 4.72616e-05)
(8.88954e-07 4.61291e-05 2.3393e-05)
(3.83836e-06 5.56577e-05 4.45131e-05)
(7.09357e-07 5.26671e-05 5.62539e-05)
(-5.73334e-07 5.95651e-05 5.06594e-05)
(-2.39365e-06 5.79026e-05 4.87256e-05)
(3.78192e-07 5.16576e-05 5.65135e-05)
(1.87865e-06 6.20083e-05 6.51184e-05)
(-3.59356e-06 4.89981e-05 6.81727e-05)
(-8.32445e-06 5.13717e-05 4.33376e-05)
(-3.65489e-06 4.72461e-05 2.24954e-05)
(2.83538e-06 6.3099e-05 4.62749e-05)
(-1.98266e-06 6.09847e-05 8.15577e-05)
(-4.91543e-06 7.69788e-05 6.79609e-05)
(-6.19171e-06 7.27656e-05 7.13045e-05)
(-1.33259e-05 6.89814e-05 6.25061e-05)
(-1.22747e-05 6.76644e-05 4.59648e-05)
(-9.02575e-06 6.94399e-05 5.4987e-05)
(-2.05791e-05 6.60952e-05 6.68948e-05)
(-3.41072e-05 4.8016e-05 3.08828e-05)
(5.74312e-05 1.69486e-05 3.51953e-05)
(2.06046e-05 2.30286e-05 3.61434e-05)
(9.45754e-06 3.60436e-05 3.69909e-05)
(6.53349e-06 4.16332e-05 2.35363e-05)
(6.04201e-06 3.21845e-05 1.69345e-05)
(5.66962e-06 3.439e-05 1.41338e-05)
(4.59221e-06 2.85072e-05 1.73586e-05)
(3.66333e-06 1.93633e-05 2.57606e-05)
(3.40322e-06 3.69195e-05 2.53714e-05)
(3.57528e-06 1.94776e-05 2.76418e-05)
(3.7975e-07 2.26689e-05 2.05539e-05)
(1.10043e-06 2.31813e-05 9.8041e-06)
(9.54271e-07 2.37867e-05 1.87974e-05)
(1.30379e-07 2.03147e-05 1.8755e-05)
(5.15361e-08 2.55534e-05 2.30858e-05)
(-2.91729e-06 2.44494e-05 2.21074e-05)
(-9.52695e-07 1.90386e-05 1.85769e-05)
(1.06639e-06 2.37455e-05 2.77461e-05)
(-1.58558e-06 1.19217e-05 2.61593e-05)
(-4.46555e-06 1.95466e-05 1.87999e-05)
(-4.31055e-06 2.46706e-05 8.81145e-06)
(-2.28088e-06 3.17039e-05 1.78239e-05)
(-4.04512e-06 1.99296e-05 2.95444e-05)
(-4.16877e-06 3.85445e-05 2.68085e-05)
(-5.58152e-06 3.21267e-05 3.02456e-05)
(-1.08583e-05 3.10578e-05 2.80538e-05)
(-1.09468e-05 3.56943e-05 2.10429e-05)
(-1.11802e-05 3.64012e-05 2.39848e-05)
(-1.93003e-05 3.2056e-05 2.68542e-05)
(-3.63634e-05 2.75463e-05 1.27194e-05)
(4.51894e-05 -1.54762e-06 1.02828e-05)
(1.66431e-05 6.04008e-06 4.56699e-06)
(1.18757e-05 1.21242e-05 8.38388e-06)
(1.00425e-05 1.79085e-05 6.9665e-06)
(7.85521e-06 1.20498e-05 5.93224e-06)
(5.27329e-06 1.28308e-05 4.23748e-06)
(1.90178e-06 8.87653e-06 2.21779e-06)
(2.05325e-06 3.03426e-06 -1.47962e-06)
(3.38576e-06 1.39952e-05 3.3034e-06)
(4.9347e-06 2.56803e-06 1.1986e-06)
(4.3453e-06 1.66751e-06 3.75908e-06)
(1.38427e-06 4.4345e-06 2.36086e-06)
(-1.4576e-06 3.11747e-06 3.22915e-06)
(-4.50721e-07 3.82334e-06 -1.67227e-06)
(4.97906e-07 3.79043e-06 6.05539e-06)
(-3.31038e-06 2.94619e-06 5.51168e-06)
(-2.188e-06 2.66897e-06 -2.37197e-06)
(2.16752e-08 2.744e-06 5.38835e-06)
(2.64558e-07 -4.31243e-06 5.47387e-07)
(-8.0243e-07 -9.69087e-07 2.89396e-06)
(-4.41165e-06 5.92865e-06 1.87174e-06)
(-6.78472e-06 9.9784e-06 2.94584e-06)
(-5.90133e-06 2.78368e-06 -3.11736e-07)
(-3.54306e-06 1.46388e-05 4.88323e-06)
(-5.36696e-06 8.45102e-06 6.7337e-06)
(-8.73684e-06 7.46911e-06 7.68746e-06)
(-9.39348e-06 1.2857e-05 8.3368e-06)
(-1.26077e-05 1.52604e-05 8.1622e-06)
(-1.8788e-05 1.5238e-05 7.60015e-06)
(-3.82846e-05 1.20671e-05 3.20469e-06)
(3.52349e-05 -8.94584e-06 -8.0076e-06)
(1.30496e-05 1.22752e-06 -1.23743e-05)
(1.26172e-05 1.49758e-06 -1.03307e-05)
(1.1962e-05 3.34962e-06 -6.01592e-06)
(9.14538e-06 -1.07401e-06 -4.80743e-06)
(5.19973e-06 -1.39652e-06 -5.47081e-06)
(6.4209e-07 -2.30799e-06 -9.54519e-06)
(1.1013e-06 -2.22052e-06 -1.70683e-05)
(3.26038e-06 1.79111e-06 -1.20799e-05)
(5.67909e-06 -3.86989e-06 -1.55163e-05)
(6.40293e-06 -9.0572e-06 -9.20209e-06)
(1.62698e-06 -8.17543e-06 -5.8344e-06)
(-2.42313e-06 -7.9314e-06 -8.70439e-06)
(-9.01662e-07 -4.10301e-06 -1.38321e-05)
(3.45137e-07 -7.98767e-06 -8.04648e-06)
(-3.04993e-06 -8.70077e-06 -8.34918e-06)
(-2.86686e-06 -4.97617e-06 -1.48766e-05)
(-7.52858e-07 -7.22658e-06 -1.11141e-05)
(1.41292e-06 -1.00206e-05 -1.6018e-05)
(1.18666e-06 -1.15054e-05 -9.61684e-06)
(-4.25092e-06 -7.06047e-06 -5.96314e-06)
(-8.99434e-06 -3.09265e-06 -9.04341e-06)
(-7.16033e-06 -2.7151e-06 -1.72023e-05)
(-3.85459e-06 1.46434e-06 -1.07984e-05)
(-5.49406e-06 -3.14883e-06 -1.01942e-05)
(-7.36517e-06 -4.5914e-06 -7.34007e-06)
(-7.65423e-06 -1.05488e-06 -2.62239e-06)
(-1.24565e-05 3.09163e-06 -3.4368e-06)
(-1.85617e-05 7.04462e-06 -2.80257e-06)
(-3.88369e-05 1.66065e-06 -5.17727e-06)
(2.90956e-05 -9.27858e-06 -1.94301e-05)
(1.11549e-05 2.74404e-07 -2.05868e-05)
(1.19351e-05 -1.35767e-06 -2.14581e-05)
(1.23313e-05 -3.30874e-06 -1.61462e-05)
(9.65905e-06 -7.36583e-06 -1.40384e-05)
(5.42708e-06 -7.96273e-06 -1.44165e-05)
(7.9832e-07 -6.77767e-06 -1.80068e-05)
(8.67689e-07 -2.90432e-06 -2.47144e-05)
(3.19877e-06 -2.65017e-06 -2.21955e-05)
(5.80726e-06 -4.96212e-06 -2.40037e-05)
(6.64893e-06 -1.25192e-05 -1.80144e-05)
(1.77991e-06 -1.36097e-05 -1.43265e-05)
(-2.21063e-06 -1.20627e-05 -1.68106e-05)
(-1.12127e-06 -7.31958e-06 -2.06508e-05)
(-1.43419e-07 -1.22753e-05 -1.76125e-05)
(-2.35855e-06 -1.29075e-05 -1.77837e-05)
(-2.9386e-06 -7.90433e-06 -2.18559e-05)
(-1.07776e-06 -1.01545e-05 -2.16778e-05)
(1.75816e-06 -1.03805e-05 -2.43115e-05)
(1.48913e-06 -1.48924e-05 -1.81814e-05)
(-4.05933e-06 -1.29873e-05 -1.44581e-05)
(-9.23079e-06 -8.52536e-06 -1.83683e-05)
(-7.77918e-06 -3.54648e-06 -2.54477e-05)
(-4.81471e-06 -3.58122e-06 -2.15784e-05)
(-5.8789e-06 -6.55335e-06 -2.14473e-05)
(-6.73758e-06 -8.61902e-06 -1.75653e-05)
(-6.50597e-06 -7.11091e-06 -1.22801e-05)
(-1.13649e-05 -2.13811e-06 -1.17358e-05)
(-1.82225e-05 3.30639e-06 -8.22631e-06)
(-3.82976e-05 -3.86591e-06 -1.22587e-05)
(2.66244e-05 -6.66197e-06 -2.4016e-05)
(1.02685e-05 -1.13235e-07 -2.24048e-05)
(1.05174e-05 -1.04048e-06 -2.5979e-05)
(1.15912e-05 -5.0664e-06 -2.2129e-05)
(9.49612e-06 -8.77274e-06 -1.98673e-05)
(5.79075e-06 -9.14718e-06 -2.03426e-05)
(1.69092e-06 -7.53998e-06 -2.23801e-05)
(1.20859e-06 -2.39537e-06 -2.70439e-05)
(3.23746e-06 -2.96384e-06 -2.69509e-05)
(5.42822e-06 -4.55092e-06 -2.63519e-05)
(5.93145e-06 -1.21158e-05 -2.3267e-05)
(1.82081e-06 -1.39438e-05 -1.96928e-05)
(-1.52215e-06 -1.24813e-05 -2.16368e-05)
(-1.12003e-06 -8.20302e-06 -2.35824e-05)
(-6.23945e-07 -1.23363e-05 -2.30554e-05)
(-1.56968e-06 -1.29161e-05 -2.31791e-05)
(-2.51372e-06 -8.5581e-06 -2.4758e-05)
(-1.08534e-06 -9.86839e-06 -2.53725e-05)
(1.43468e-06 -9.3931e-06 -2.63475e-05)
(8.6508e-07 -1.44489e-05 -2.33209e-05)
(-3.84478e-06 -1.36312e-05 -2.00337e-05)
(-8.5209e-06 -9.14454e-06 -2.37176e-05)
(-7.90108e-06 -3.15618e-06 -2.80567e-05)
(-5.85543e-06 -4.07393e-06 -2.70239e-05)
(-6.4409e-06 -5.89168e-06 -2.68761e-05)
(-6.84616e-06 -8.53742e-06 -2.3591e-05)
(-6.24493e-06 -7.93294e-06 -1.85457e-05)
(-1.01253e-05 -3.47931e-06 -1.61145e-05)
(-1.73398e-05 1.6768e-06 -1.02196e-05)
(-3.62787e-05 -6.29361e-06 -1.67937e-05)
(2.69859e-05 -4.18588e-06 -2.33838e-05)
(1.09597e-05 -1.1207e-06 -2.17901e-05)
(9.05128e-06 -5.79496e-07 -2.59657e-05)
(1.02442e-05 -4.9123e-06 -2.41405e-05)
(9.03569e-06 -7.62266e-06 -2.20623e-05)
(6.05355e-06 -7.93169e-06 -2.27063e-05)
(2.67433e-06 -7.33738e-06 -2.3237e-05)
(1.90223e-06 -2.12461e-06 -2.62963e-05)
(3.35038e-06 -2.15945e-06 -2.74908e-05)
(4.80186e-06 -4.47722e-06 -2.52688e-05)
(4.90116e-06 -1.04618e-05 -2.45535e-05)
(1.7525e-06 -1.19549e-05 -2.22225e-05)
(-8.30517e-07 -1.18969e-05 -2.27523e-05)
(-8.68425e-07 -8.21015e-06 -2.38776e-05)
(-8.12735e-07 -1.0657e-05 -2.40823e-05)
(-1.01107e-06 -1.12003e-05 -2.41992e-05)
(-1.99521e-06 -8.42061e-06 -2.49368e-05)
(-9.6673e-07 -9.06084e-06 -2.53402e-05)
(8.17299e-07 -8.92536e-06 -2.49948e-05)
(-3.00113e-09 -1.27601e-05 -2.45717e-05)
(-3.6642e-06 -1.17824e-05 -2.27839e-05)
(-7.56708e-06 -7.96565e-06 -2.52716e-05)
(-7.71384e-06 -2.94976e-06 -2.74316e-05)
(-6.63173e-06 -3.20737e-06 -2.80161e-05)
(-7.00626e-06 -4.4284e-06 -2.76497e-05)
(-7.0572e-06 -7.1576e-06 -2.49312e-05)
(-6.67865e-06 -6.60475e-06 -2.10188e-05)
(-8.88184e-06 -3.72358e-06 -1.71164e-05)
(-1.54144e-05 7.69504e-07 -9.9458e-06)
(-3.11634e-05 -7.56843e-06 -1.87756e-05)
(2.88351e-05 -3.16575e-06 -1.99668e-05)
(1.19481e-05 -2.6071e-06 -1.99755e-05)
(7.73091e-06 -1.06275e-06 -2.37411e-05)
(8.60578e-06 -4.3399e-06 -2.33601e-05)
(8.73494e-06 -5.43876e-06 -2.23117e-05)
(6.11182e-06 -6.32657e-06 -2.24744e-05)
(3.38404e-06 -7.37061e-06 -2.19139e-05)
(2.73179e-06 -2.38044e-06 -2.41771e-05)
(3.44063e-06 -1.74167e-06 -2.56888e-05)
(4.19434e-06 -4.35016e-06 -2.38415e-05)
(3.98565e-06 -8.87344e-06 -2.29929e-05)
(1.54433e-06 -9.90433e-06 -2.21875e-05)
(-3.31685e-07 -1.15526e-05 -2.13392e-05)
(-4.24824e-07 -8.01438e-06 -2.2759e-05)
(-7.04597e-07 -8.6597e-06 -2.29372e-05)
(-7.17824e-07 -9.1779e-06 -2.30623e-05)
(-1.61756e-06 -8.18069e-06 -2.36641e-05)
(-8.95431e-07 -8.28823e-06 -2.38654e-05)
(1.94195e-07 -8.47136e-06 -2.34356e-05)
(-6.93068e-07 -1.11268e-05 -2.30157e-05)
(-3.54463e-06 -9.81061e-06 -2.28328e-05)
(-6.72258e-06 -6.84352e-06 -2.43426e-05)
(-7.37497e-06 -3.2489e-06 -2.53325e-05)
(-7.08026e-06 -2.70068e-06 -2.63646e-05)
(-7.44355e-06 -3.77172e-06 -2.58e-05)
(-7.1528e-06 -6.13123e-06 -2.297e-05)
(-7.18225e-06 -5.56212e-06 -2.02556e-05)
(-7.33288e-06 -4.15899e-06 -1.60196e-05)
(-1.22095e-05 -1.56595e-07 -8.37835e-06)
(-2.11768e-05 -8.55967e-06 -1.91113e-05)
(3.08568e-05 -3.36388e-06 -1.57637e-05)
(1.27056e-05 -4.28302e-06 -1.79331e-05)
(6.58221e-06 -2.16256e-06 -2.10401e-05)
(7.05954e-06 -3.69732e-06 -2.09676e-05)
(8.38477e-06 -3.78528e-06 -2.09639e-05)
(5.99232e-06 -5.08681e-06 -2.09551e-05)
(3.76088e-06 -7.54665e-06 -1.96229e-05)
(3.49585e-06 -2.88147e-06 -2.17466e-05)
(3.5299e-06 -1.96178e-06 -2.31293e-05)
(3.74669e-06 -4.1422e-06 -2.2138e-05)
(3.25709e-06 -7.24681e-06 -2.076e-05)
(1.23123e-06 -8.47288e-06 -2.07922e-05)
(-3.3765e-09 -1.08244e-05 -1.95317e-05)
(5.21611e-08 -7.74269e-06 -2.1163e-05)
(-4.37352e-07 -6.99915e-06 -2.13561e-05)
(-5.91793e-07 -7.49217e-06 -2.14868e-05)
(-1.36285e-06 -7.98949e-06 -2.18708e-05)
(-8.51492e-07 -8.00013e-06 -2.12718e-05)
(-2.79581e-07 -7.94281e-06 -2.17135e-05)
(-1.22113e-06 -9.44578e-06 -2.08184e-05)
(-3.52454e-06 -8.57678e-06 -2.14024e-05)
(-6.06715e-06 -6.31041e-06 -2.23833e-05)
(-6.9859e-06 -3.86407e-06 -2.28497e-05)
(-7.28421e-06 -2.87139e-06 -2.37675e-05)
(-7.70355e-06 -3.98162e-06 -2.31353e-05)
(-7.54432e-06 -5.47821e-06 -2.03858e-05)
(-7.94071e-06 -4.91814e-06 -1.87666e-05)
(-5.45964e-06 -4.77457e-06 -1.3955e-05)
(-8.63902e-06 -1.46534e-06 -6.34961e-06)
(-8.11105e-06 -9.06397e-06 -1.87555e-05)
(3.24754e-05 -3.82868e-06 -1.17552e-05)
(1.325e-05 -5.55605e-06 -1.62562e-05)
(5.59645e-06 -3.02227e-06 -1.85617e-05)
(6.30083e-06 -2.84527e-06 -1.85541e-05)
(7.90958e-06 -3.13271e-06 -1.89315e-05)
(5.82612e-06 -4.19982e-06 -1.91508e-05)
(4.01848e-06 -6.9749e-06 -1.7751e-05)
(4.06448e-06 -3.23819e-06 -1.94567e-05)
(3.60835e-06 -2.46175e-06 -2.07461e-05)
(3.45741e-06 -4.07035e-06 -2.02611e-05)
(2.71837e-06 -5.81174e-06 -1.88652e-05)
(9.55262e-07 -7.4552e-06 -1.90949e-05)
(2.03243e-07 -9.46572e-06 -1.79446e-05)
(3.78442e-07 -7.36309e-06 -1.96022e-05)
(-1.60971e-07 -6.48001e-06 -1.96142e-05)
(-5.28205e-07 -6.94526e-06 -1.97324e-05)
(-1.13172e-06 -7.775e-06 -2.01114e-05)
(-8.26874e-07 -7.61236e-06 -1.90184e-05)
(-6.2057e-07 -7.54579e-06 -1.98642e-05)
(-1.62619e-06 -7.94623e-06 -1.89781e-05)
(-3.56574e-06 -7.87191e-06 -1.96652e-05)
(-5.57593e-06 -6.12485e-06 -2.0379e-05)
(-6.59533e-06 -4.44626e-06 -2.04772e-05)
(-7.33848e-06 -3.31853e-06 -2.12661e-05)
(-7.83759e-06 -4.3079e-06 -2.0556e-05)
(-8.14351e-06 -5.0502e-06 -1.843e-05)
(-8.34238e-06 -4.669e-06 -1.69851e-05)
(-4.37082e-06 -4.80203e-06 -1.21927e-05)
(-6.98745e-06 -2.38049e-06 -5.10202e-06)
(2.80073e-07 -8.18079e-06 -1.86231e-05)
(3.44813e-05 -3.89782e-06 -8.29487e-06)
(1.37792e-05 -6.06381e-06 -1.50413e-05)
(5.00247e-06 -3.26998e-06 -1.64395e-05)
(6.24707e-06 -2.08304e-06 -1.67742e-05)
(7.37915e-06 -3.09641e-06 -1.71321e-05)
(5.75493e-06 -3.42974e-06 -1.75999e-05)
(4.28377e-06 -5.49968e-06 -1.63878e-05)
(4.37928e-06 -3.28345e-06 -1.73776e-05)
(3.64169e-06 -2.79466e-06 -1.89156e-05)
(3.23472e-06 -4.03305e-06 -1.85907e-05)
(2.33477e-06 -5.47112e-06 -1.70664e-05)
(8.2522e-07 -6.66694e-06 -1.76206e-05)
(3.35648e-07 -7.86811e-06 -1.67541e-05)
(4.96061e-07 -6.82232e-06 -1.83308e-05)
(2.94979e-08 -6.54686e-06 -1.8255e-05)
(-4.47854e-07 -6.9858e-06 -1.8344e-05)
(-8.7862e-07 -7.42488e-06 -1.86588e-05)
(-8.22609e-07 -6.94116e-06 -1.76856e-05)
(-9.06242e-07 -7.25103e-06 -1.82343e-05)
(-1.9014e-06 -7.50843e-06 -1.72414e-05)
(-3.57116e-06 -7.34625e-06 -1.81982e-05)
(-5.18849e-06 -5.8713e-06 -1.8765e-05)
(-6.22267e-06 -4.74849e-06 -1.83273e-05)
(-7.29134e-06 -3.57842e-06 -1.92786e-05)
(-7.96769e-06 -4.21222e-06 -1.83398e-05)
(-8.45508e-06 -5.00064e-06 -1.66344e-05)
(-8.34311e-06 -4.53431e-06 -1.52079e-05)
(-4.23231e-06 -4.15237e-06 -1.07871e-05)
(-6.64824e-06 -2.884e-06 -4.145e-06)
(1.45608e-06 -5.89742e-06 -1.84622e-05)
(3.86245e-05 -3.24466e-06 -6.15256e-06)
(1.44384e-05 -5.72065e-06 -1.42184e-05)
(5.38272e-06 -2.82242e-06 -1.53533e-05)
(6.10888e-06 -2.13591e-06 -1.53924e-05)
(6.86353e-06 -3.09093e-06 -1.59388e-05)
(5.83307e-06 -2.54585e-06 -1.64895e-05)
(4.59787e-06 -3.60471e-06 -1.54213e-05)
(4.50961e-06 -3.14494e-06 -1.57885e-05)
(3.62362e-06 -2.67368e-06 -1.76818e-05)
(2.97548e-06 -3.78598e-06 -1.73729e-05)
(2.06212e-06 -5.82817e-06 -1.57553e-05)
(8.44899e-07 -5.87426e-06 -1.65798e-05)
(4.33003e-07 -6.28681e-06 -1.62258e-05)
(5.15996e-07 -5.99363e-06 -1.74123e-05)
(1.34266e-07 -6.2839e-06 -1.75301e-05)
(-3.45426e-07 -6.69916e-06 -1.75842e-05)
(-6.64744e-07 -6.79136e-06 -1.75674e-05)
(-8.33279e-07 -6.66492e-06 -1.66634e-05)
(-1.17779e-06 -6.83243e-06 -1.70483e-05)
(-2.05524e-06 -7.6976e-06 -1.5946e-05)
(-3.44817e-06 -6.65825e-06 -1.71588e-05)
(-4.8638e-06 -5.26968e-06 -1.76233e-05)
(-5.90675e-06 -4.79274e-06 -1.6649e-05)
(-7.19688e-06 -3.40204e-06 -1.78841e-05)
(-8.23822e-06 -3.3451e-06 -1.71858e-05)
(-8.5138e-06 -4.71358e-06 -1.49843e-05)
(-8.56185e-06 -3.83087e-06 -1.43918e-05)
(-4.81228e-06 -3.22685e-06 -9.84493e-06)
(-8.34136e-06 -2.56841e-06 -3.9408e-06)
(-2.93522e-06 -3.05793e-06 -1.77153e-05)
(4.25384e-05 -2.45333e-06 -4.50557e-06)
(1.50645e-05 -4.6723e-06 -1.36345e-05)
(5.75834e-06 -2.21297e-06 -1.46599e-05)
(5.58257e-06 -2.44844e-06 -1.46547e-05)
(6.42094e-06 -2.50193e-06 -1.52277e-05)
(5.9983e-06 -1.40779e-06 -1.57857e-05)
(4.87254e-06 -1.61338e-06 -1.491e-05)
(4.62443e-06 -2.28429e-06 -1.56444e-05)
(3.62821e-06 -2.0056e-06 -1.69466e-05)
(2.65245e-06 -3.11042e-06 -1.66424e-05)
(1.871e-06 -5.76309e-06 -1.5225e-05)
(9.65819e-07 -4.72676e-06 -1.58607e-05)
(5.11443e-07 -4.90941e-06 -1.56956e-05)
(5.47949e-07 -4.72672e-06 -1.66409e-05)
(1.89712e-07 -5.311e-06 -1.72291e-05)
(-2.46105e-07 -5.70518e-06 -1.72517e-05)
(-5.78679e-07 -5.68531e-06 -1.66815e-05)
(-8.56582e-07 -6.47119e-06 -1.60782e-05)
(-1.39785e-06 -5.93163e-06 -1.62189e-05)
(-2.10988e-06 -7.36134e-06 -1.52109e-05)
(-3.19145e-06 -5.49168e-06 -1.63899e-05)
(-4.64406e-06 -4.21959e-06 -1.68849e-05)
(-5.71827e-06 -3.99705e-06 -1.62757e-05)
(-7.03229e-06 -2.7444e-06 -1.69832e-05)
(-8.44203e-06 -2.2231e-06 -1.62309e-05)
(-8.81707e-06 -3.72514e-06 -1.43088e-05)
(-8.605e-06 -2.6721e-06 -1.37947e-05)
(-5.42257e-06 -2.06456e-06 -9.45659e-06)
(-9.4797e-06 -1.46461e-06 -3.75499e-06)
(-8.33697e-06 -6.44622e-07 -1.64133e-05)
(4.48748e-05 -1.78566e-06 -3.23354e-06)
(1.54694e-05 -3.17307e-06 -1.32561e-05)
(5.77624e-06 -1.45112e-06 -1.42525e-05)
(4.74207e-06 -1.85398e-06 -1.44668e-05)
(6.13918e-06 -1.16685e-06 -1.48021e-05)
(6.1686e-06 -3.99191e-08 -1.53879e-05)
(5.03643e-06 -2.41386e-08 -1.4326e-05)
(4.70564e-06 -7.84259e-07 -1.58846e-05)
(3.63822e-06 -8.86239e-07 -1.65435e-05)
(2.33124e-06 -1.91861e-06 -1.63112e-05)
(1.7644e-06 -4.46574e-06 -1.53887e-05)
(1.12023e-06 -3.02411e-06 -1.50909e-05)
(5.7815e-07 -3.40126e-06 -1.51713e-05)
(6.09762e-07 -3.03423e-06 -1.56528e-05)
(2.14418e-07 -3.7413e-06 -1.70776e-05)
(-1.56423e-07 -4.11026e-06 -1.70811e-05)
(-6.17383e-07 -4.0492e-06 -1.56838e-05)
(-8.8286e-07 -5.39245e-06 -1.59612e-05)
(-1.51952e-06 -4.34194e-06 -1.53662e-05)
(-2.1063e-06 -5.7484e-06 -1.47047e-05)
(-2.8969e-06 -3.73035e-06 -1.55248e-05)
(-4.49603e-06 -2.795e-06 -1.64113e-05)
(-5.58869e-06 -2.45985e-06 -1.5995e-05)
(-6.89318e-06 -1.6971e-06 -1.64299e-05)
(-8.50566e-06 -1.12359e-06 -1.51981e-05)
(-9.39632e-06 -2.12726e-06 -1.46301e-05)
(-8.4963e-06 -1.28475e-06 -1.31936e-05)
(-5.14521e-06 -7.30787e-07 -8.97e-06)
(-8.69826e-06 -1.3433e-07 -2.98793e-06)
(-9.1934e-06 5.81993e-07 -1.46135e-05)
(4.57209e-05 -1.08929e-06 -2.53222e-06)
(1.56574e-05 -1.42142e-06 -1.30798e-05)
(5.61966e-06 -2.51643e-07 -1.41147e-05)
(3.88563e-06 6.84752e-08 -1.42886e-05)
(6.14323e-06 7.86595e-07 -1.50796e-05)
(6.26995e-06 1.44687e-06 -1.52544e-05)
(5.19566e-06 1.39552e-06 -1.44312e-05)
(4.78528e-06 9.07673e-07 -1.60315e-05)
(3.66628e-06 5.0025e-07 -1.63636e-05)
(2.11895e-06 -2.80885e-07 -1.62368e-05)
(1.75445e-06 -1.64351e-06 -1.62562e-05)
(1.23262e-06 -1.08503e-06 -1.42116e-05)
(6.31481e-07 -1.41664e-06 -1.53747e-05)
(6.76615e-07 -1.33263e-06 -1.45123e-05)
(2.14896e-07 -1.848e-06 -1.69721e-05)
(-6.9701e-08 -2.18536e-06 -1.69729e-05)
(-6.76403e-07 -2.25494e-06 -1.46277e-05)
(-9.00556e-07 -3.00963e-06 -1.60469e-05)
(-1.57136e-06 -2.38849e-06 -1.44078e-05)
(-2.11558e-06 -2.89237e-06 -1.46219e-05)
(-2.69865e-06 -1.74199e-06 -1.45434e-05)
(-4.43219e-06 -1.16254e-06 -1.61504e-05)
(-5.51486e-06 -9.21585e-07 -1.55895e-05)
(-6.82266e-06 -4.16698e-07 -1.61603e-05)
(-8.50449e-06 -1.57436e-07 -1.44563e-05)
(-9.80424e-06 -1.8607e-07 -1.50084e-05)
(-8.75703e-06 3.66898e-07 -1.3294e-05)
(-5.14991e-06 7.9119e-07 -8.82147e-06)
(-6.99313e-06 8.97356e-07 -2.03311e-06)
(-1.07943e-05 9.48712e-07 -1.37496e-05)
(4.58065e-05 -2.87398e-07 -2.46012e-06)
(1.56291e-05 4.36997e-07 -1.30716e-05)
(5.52795e-06 1.21836e-06 -1.41068e-05)
(3.75413e-06 2.52872e-06 -1.43068e-05)
(6.0525e-06 2.90908e-06 -1.51387e-05)
(6.26706e-06 2.91378e-06 -1.53196e-05)
(5.26032e-06 2.76765e-06 -1.44949e-05)
(4.87363e-06 2.61223e-06 -1.60734e-05)
(3.73782e-06 1.97236e-06 -1.63773e-05)
(2.15664e-06 1.55013e-06 -1.62659e-05)
(1.7724e-06 1.97602e-06 -1.63012e-05)
(1.24951e-06 8.50167e-07 -1.42486e-05)
(6.39671e-07 8.46203e-07 -1.53629e-05)
(6.83096e-07 2.31771e-07 -1.44461e-05)
(2.44971e-07 1.33602e-07 -1.69462e-05)
(-2.31957e-08 -1.75e-07 -1.69536e-05)
(-6.53293e-07 -4.93637e-07 -1.4672e-05)
(-9.11318e-07 1.86652e-07 -1.648e-05)
(-1.61469e-06 -3.953e-07 -1.44013e-05)
(-2.17908e-06 5.07288e-07 -1.46613e-05)
(-2.7311e-06 2.13513e-07 -1.45509e-05)
(-4.47185e-06 5.29381e-07 -1.61437e-05)
(-5.5641e-06 7.04926e-07 -1.60609e-05)
(-6.8208e-06 9.49755e-07 -1.61818e-05)
(-8.59026e-06 9.73063e-07 -1.49704e-05)
(-9.81142e-06 1.95602e-06 -1.50675e-05)
(-8.86592e-06 2.15101e-06 -1.3308e-05)
(-5.79153e-06 2.29645e-06 -8.98666e-06)
(-7.14169e-06 1.76191e-06 -2.07792e-06)
(-1.35753e-05 1.21035e-06 -1.43939e-05)
(4.51777e-05 5.90303e-07 -2.99361e-06)
(1.53895e-05 2.28222e-06 -1.32367e-05)
(5.48066e-06 2.48603e-06 -1.42195e-05)
(4.32617e-06 4.40012e-06 -1.45242e-05)
(5.85722e-06 4.68438e-06 -1.49877e-05)
(6.16396e-06 4.20402e-06 -1.55994e-05)
(5.24269e-06 4.02794e-06 -1.45037e-05)
(4.98329e-06 4.2301e-06 -1.60181e-05)
(3.86279e-06 3.34953e-06 -1.65881e-05)
(2.4443e-06 3.22404e-06 -1.64022e-05)
(1.82251e-06 4.82212e-06 -1.55597e-05)
(1.17748e-06 2.83554e-06 -1.51821e-05)
(5.94495e-07 2.87662e-06 -1.51145e-05)
(6.25796e-07 1.89918e-06 -1.54869e-05)
(3.10283e-07 2.00781e-06 -1.70113e-05)
(1.05961e-09 1.73555e-06 -1.7036e-05)
(-4.87307e-07 1.37891e-06 -1.5743e-05)
(-9.03554e-07 2.89435e-06 -1.63057e-05)
(-1.70723e-06 1.61554e-06 -1.53334e-05)
(-2.30413e-06 3.40479e-06 -1.48358e-05)
(-2.99875e-06 2.20622e-06 -1.5544e-05)
(-4.57424e-06 2.14156e-06 -1.63671e-05)
(-5.66539e-06 2.53643e-06 -1.64237e-05)
(-6.87554e-06 2.23577e-06 -1.64409e-05)
(-8.58146e-06 2.33567e-06 -1.57368e-05)
(-9.46769e-06 4.01279e-06 -1.48113e-05)
(-8.83459e-06 3.81646e-06 -1.32292e-05)
(-6.13643e-06 3.32658e-06 -8.98136e-06)
(-8.9055e-06 2.67086e-06 -3.04478e-06)
(-1.2632e-05 1.88877e-06 -1.56896e-05)
(4.31955e-05 1.62113e-06 -4.02442e-06)
(1.49511e-05 4.01195e-06 -1.36113e-05)
(5.19404e-06 3.37773e-06 -1.45801e-05)
(4.80828e-06 4.84982e-06 -1.47595e-05)
(5.91798e-06 5.6873e-06 -1.55894e-05)
(6.00199e-06 5.17218e-06 -1.61939e-05)
(5.25661e-06 5.29806e-06 -1.52006e-05)
(5.1317e-06 5.58914e-06 -1.58915e-05)
(4.03636e-06 4.45718e-06 -1.70308e-05)
(2.85511e-06 4.50302e-06 -1.67958e-05)
(1.97367e-06 6.24624e-06 -1.55356e-05)
(1.0646e-06 4.61378e-06 -1.5973e-05)
(5.27643e-07 4.42292e-06 -1.55582e-05)
(5.68556e-07 3.53202e-06 -1.64583e-05)
(3.62724e-07 3.54436e-06 -1.71474e-05)
(5.49783e-08 3.34075e-06 -1.71893e-05)
(-2.96215e-07 3.16523e-06 -1.66375e-05)
(-8.81617e-07 4.19827e-06 -1.60137e-05)
(-1.76154e-06 3.39074e-06 -1.61481e-05)
(-2.46686e-06 5.14818e-06 -1.54167e-05)
(-3.39062e-06 3.98078e-06 -1.64057e-05)
(-4.76987e-06 3.50793e-06 -1.67946e-05)
(-5.79366e-06 4.06605e-06 -1.63868e-05)
(-6.97512e-06 3.25496e-06 -1.6955e-05)
(-8.40792e-06 3.59284e-06 -1.64602e-05)
(-8.97243e-06 5.91266e-06 -1.46019e-05)
(-9.23625e-06 5.25288e-06 -1.38879e-05)
(-6.46233e-06 3.94005e-06 -9.54443e-06)
(-9.57088e-06 3.43452e-06 -4.03208e-06)
(-9.60758e-06 3.0912e-06 -1.75221e-05)
(3.985e-05 2.94716e-06 -5.30367e-06)
(1.4318e-05 5.50824e-06 -1.41706e-05)
(4.43456e-06 4.1727e-06 -1.52084e-05)
(4.84764e-06 4.2518e-06 -1.55794e-05)
(6.08467e-06 5.73064e-06 -1.65655e-05)
(5.8568e-06 5.69236e-06 -1.7182e-05)
(5.22121e-06 6.70299e-06 -1.58601e-05)
(5.31145e-06 6.26224e-06 -1.61789e-05)
(4.26698e-06 5.12322e-06 -1.78115e-05)
(3.30972e-06 5.32501e-06 -1.75671e-05)
(2.21648e-06 6.55963e-06 -1.61274e-05)
(9.60762e-07 5.85299e-06 -1.66743e-05)
(4.32572e-07 5.77427e-06 -1.60052e-05)
(5.42409e-07 4.73911e-06 -1.72729e-05)
(4.00377e-07 4.478e-06 -1.74553e-05)
(1.39508e-07 4.38261e-06 -1.74946e-05)
(-1.8268e-07 4.50026e-06 -1.73459e-05)
(-8.51496e-07 4.77636e-06 -1.62732e-05)
(-1.73531e-06 4.65181e-06 -1.68991e-05)
(-2.62097e-06 5.72128e-06 -1.61412e-05)
(-3.80153e-06 5.14203e-06 -1.71447e-05)
(-5.06585e-06 4.45841e-06 -1.75067e-05)
(-5.99073e-06 4.77087e-06 -1.66023e-05)
(-7.07915e-06 3.85891e-06 -1.78362e-05)
(-8.05745e-06 4.79235e-06 -1.71975e-05)
(-8.77527e-06 7.33425e-06 -1.52936e-05)
(-9.59538e-06 6.56605e-06 -1.45332e-05)
(-6.17202e-06 4.5367e-06 -1.02469e-05)
(-8.57978e-06 3.51623e-06 -4.74606e-06)
(-2.25392e-06 4.94648e-06 -1.88843e-05)
(3.652e-05 4.26673e-06 -6.90218e-06)
(1.36577e-05 6.60185e-06 -1.48731e-05)
(3.5112e-06 4.87278e-06 -1.62307e-05)
(4.32864e-06 3.73659e-06 -1.71412e-05)
(6.25364e-06 4.93228e-06 -1.81654e-05)
(5.80521e-06 5.71939e-06 -1.87177e-05)
(5.22003e-06 7.76909e-06 -1.71242e-05)
(5.56129e-06 6.22326e-06 -1.79573e-05)
(4.5915e-06 5.25497e-06 -1.90847e-05)
(3.77167e-06 5.76055e-06 -1.87777e-05)
(2.55099e-06 6.33858e-06 -1.74183e-05)
(9.05597e-07 6.71118e-06 -1.7654e-05)
(2.99949e-07 7.2563e-06 -1.6509e-05)
(5.40282e-07 5.52593e-06 -1.8251e-05)
(4.11548e-07 4.70163e-06 -1.8195e-05)
(2.73441e-07 4.7459e-06 -1.82026e-05)
(-1.32112e-07 5.45086e-06 -1.8208e-05)
(-8.11386e-07 5.72576e-06 -1.6999e-05)
(-1.67648e-06 5.6047e-06 -1.78987e-05)
(-2.75347e-06 5.65215e-06 -1.7353e-05)
(-4.16036e-06 5.74177e-06 -1.8141e-05)
(-5.49641e-06 4.91419e-06 -1.8663e-05)
(-6.33197e-06 4.65526e-06 -1.82771e-05)
(-7.10278e-06 3.96269e-06 -1.92437e-05)
(-7.59946e-06 5.68388e-06 -1.82484e-05)
(-8.87982e-06 7.96252e-06 -1.68515e-05)
(-9.91141e-06 7.50427e-06 -1.53325e-05)
(-6.27122e-06 4.89947e-06 -1.15638e-05)
(-7.72533e-06 2.42931e-06 -5.86256e-06)
(3.12277e-06 6.78066e-06 -2.00554e-05)
(3.55361e-05 4.90188e-06 -9.59167e-06)
(1.3084e-05 7.17017e-06 -1.57548e-05)
(3.37547e-06 4.9859e-06 -1.82879e-05)
(3.54024e-06 3.87375e-06 -1.92942e-05)
(6.36044e-06 3.8811e-06 -2.06241e-05)
(5.90644e-06 5.36331e-06 -2.09371e-05)
(5.35517e-06 8.28117e-06 -1.907e-05)
(5.75102e-06 5.9968e-06 -2.02573e-05)
(4.94505e-06 4.9212e-06 -2.09453e-05)
(4.27304e-06 6.00247e-06 -2.03721e-05)
(3.00682e-06 6.34289e-06 -1.93035e-05)
(9.50457e-07 7.46485e-06 -1.90588e-05)
(1.25754e-07 8.76341e-06 -1.77696e-05)
(4.58967e-07 6.02034e-06 -1.95752e-05)
(3.65387e-07 4.58866e-06 -1.95583e-05)
(4.96666e-07 4.79213e-06 -1.95076e-05)
(-3.23891e-08 6.19604e-06 -1.93735e-05)
(-7.55665e-07 7.39313e-06 -1.78968e-05)
(-1.64974e-06 6.56643e-06 -1.91566e-05)
(-2.86604e-06 5.74541e-06 -1.91227e-05)
(-4.46984e-06 6.0394e-06 -1.96182e-05)
(-6.00794e-06 4.96701e-06 -2.03638e-05)
(-6.74473e-06 4.33371e-06 -2.0491e-05)
(-7.08798e-06 3.58031e-06 -2.12901e-05)
(-7.24844e-06 5.73126e-06 -2.0464e-05)
(-8.8044e-06 7.94919e-06 -1.86639e-05)
(-1.0556e-05 7.86342e-06 -1.70287e-05)
(-7.36979e-06 4.88199e-06 -1.34366e-05)
(-9.70745e-06 3.20029e-07 -8.23089e-06)
(2.26993e-06 7.95897e-06 -2.12079e-05)
(3.51339e-05 5.10042e-06 -1.25897e-05)
(1.24624e-05 7.25829e-06 -1.67633e-05)
(3.39335e-06 4.65294e-06 -2.06645e-05)
(3.28619e-06 4.04791e-06 -2.24053e-05)
(6.33269e-06 3.23756e-06 -2.37323e-05)
(6.11089e-06 4.92845e-06 -2.38246e-05)
(5.59124e-06 7.92442e-06 -2.18589e-05)
(5.81349e-06 5.46285e-06 -2.27662e-05)
(5.32684e-06 4.38463e-06 -2.33844e-05)
(4.87655e-06 6.29878e-06 -2.2066e-05)
(3.61883e-06 7.17698e-06 -2.13128e-05)
(1.14824e-06 8.36289e-06 -2.07592e-05)
(-1.13972e-07 1.01065e-05 -1.94767e-05)
(1.8033e-07 6.33747e-06 -2.11929e-05)
(2.61468e-07 5.03159e-06 -2.12864e-05)
(8.13088e-07 5.41171e-06 -2.11516e-05)
(1.99688e-07 6.86683e-06 -2.07715e-05)
(-6.89303e-07 8.95862e-06 -1.93679e-05)
(-1.67823e-06 7.7187e-06 -2.0355e-05)
(-2.94707e-06 6.64743e-06 -2.10259e-05)
(-4.77201e-06 6.42633e-06 -2.15177e-05)
(-6.61766e-06 4.91262e-06 -2.25903e-05)
(-7.19081e-06 3.80059e-06 -2.29133e-05)
(-7.00324e-06 2.94123e-06 -2.39613e-05)
(-6.8754e-06 5.35327e-06 -2.31694e-05)
(-8.37328e-06 8.12239e-06 -2.07176e-05)
(-1.08929e-05 8.33366e-06 -1.87546e-05)
(-9.52895e-06 4.17274e-06 -1.58872e-05)
(-1.30889e-05 -2.0632e-06 -1.10143e-05)
(-5.96818e-06 8.06834e-06 -2.27154e-05)
(3.43733e-05 5.3635e-06 -1.56089e-05)
(1.15802e-05 7.08633e-06 -1.76748e-05)
(3.3531e-06 4.21645e-06 -2.31907e-05)
(3.69771e-06 4.1669e-06 -2.59442e-05)
(6.12329e-06 3.65642e-06 -2.66911e-05)
(6.27544e-06 4.95542e-06 -2.69801e-05)
(5.77955e-06 7.04887e-06 -2.5414e-05)
(5.763e-06 4.79991e-06 -2.53477e-05)
(5.74457e-06 4.1172e-06 -2.60981e-05)
(5.63434e-06 6.75646e-06 -2.34049e-05)
(4.41106e-06 8.84015e-06 -2.30732e-05)
(1.44614e-06 9.75353e-06 -2.2282e-05)
(-4.54535e-07 1.08833e-05 -2.14004e-05)
(-2.49822e-07 6.56134e-06 -2.28492e-05)
(1.82537e-07 6.56361e-06 -2.28453e-05)
(1.12634e-06 7.13093e-06 -2.2606e-05)
(5.10924e-07 7.5463e-06 -2.21036e-05)
(-6.16637e-07 1.03545e-05 -2.07177e-05)
(-1.71141e-06 8.99872e-06 -2.10361e-05)
(-2.94735e-06 8.36603e-06 -2.26877e-05)
(-5.1074e-06 7.45368e-06 -2.33262e-05)
(-7.36577e-06 5.25377e-06 -2.49893e-05)
(-7.65449e-06 3.27036e-06 -2.5348e-05)
(-6.82056e-06 2.5742e-06 -2.69392e-05)
(-6.39374e-06 5.22032e-06 -2.60847e-05)
(-7.78009e-06 9.19534e-06 -2.29006e-05)
(-1.08939e-05 9.31928e-06 -2.03297e-05)
(-1.24198e-05 3.01745e-06 -1.89218e-05)
(-1.6782e-05 -4.45828e-06 -1.39399e-05)
(-1.91543e-05 7.46418e-06 -2.44989e-05)
(3.3519e-05 6.42741e-06 -1.78514e-05)
(1.03576e-05 6.87201e-06 -1.78716e-05)
(3.4122e-06 4.43712e-06 -2.51805e-05)
(4.18539e-06 4.71683e-06 -2.83108e-05)
(5.87622e-06 5.17505e-06 -2.84889e-05)
(6.25602e-06 5.99399e-06 -2.93307e-05)
(5.62713e-06 6.73313e-06 -2.82002e-05)
(5.62043e-06 4.33775e-06 -2.74443e-05)
(6.15721e-06 4.59298e-06 -2.8233e-05)
(6.51946e-06 7.02351e-06 -2.42425e-05)
(5.4074e-06 1.07143e-05 -2.43849e-05)
(1.73618e-06 1.20046e-05 -2.25662e-05)
(-9.47031e-07 1.13252e-05 -2.29048e-05)
(-6.54244e-07 6.74904e-06 -2.39998e-05)
(2.53535e-07 8.37917e-06 -2.39791e-05)
(1.26598e-06 9.1172e-06 -2.36248e-05)
(7.20282e-07 8.21707e-06 -2.2811e-05)
(-5.61473e-07 1.18793e-05 -2.06635e-05)
(-1.65774e-06 9.88186e-06 -2.11569e-05)
(-2.75929e-06 1.02516e-05 -2.3894e-05)
(-5.45917e-06 9.5673e-06 -2.3852e-05)
(-8.28063e-06 6.43701e-06 -2.6617e-05)
(-8.09187e-06 2.97868e-06 -2.72197e-05)
(-6.44836e-06 3.07042e-06 -2.92552e-05)
(-5.82453e-06 6.18318e-06 -2.82857e-05)
(-7.46905e-06 1.09648e-05 -2.4779e-05)
(-1.10508e-05 1.09097e-05 -2.13961e-05)
(-1.4996e-05 2.40673e-06 -2.12935e-05)
(-2.02561e-05 -6.5079e-06 -1.65969e-05)
(-3.04404e-05 7.18173e-06 -2.50685e-05)
(3.33967e-05 8.31203e-06 -1.76993e-05)
(9.24538e-06 6.2423e-06 -1.67079e-05)
(3.88647e-06 5.50438e-06 -2.5009e-05)
(4.63725e-06 5.88943e-06 -2.80174e-05)
(5.92415e-06 7.01863e-06 -2.83135e-05)
(5.9938e-06 7.96986e-06 -2.90541e-05)
(4.99358e-06 7.42989e-06 -2.86176e-05)
(5.40446e-06 4.1656e-06 -2.79252e-05)
(6.45906e-06 5.7968e-06 -2.82257e-05)
(7.41895e-06 6.84996e-06 -2.45823e-05)
(6.61578e-06 1.28287e-05 -2.28943e-05)
(1.93587e-06 1.45431e-05 -2.03006e-05)
(-1.63606e-06 1.20769e-05 -2.18522e-05)
(-8.71195e-07 6.73056e-06 -2.36767e-05)
(5.95475e-07 9.86621e-06 -2.29478e-05)
(1.05187e-06 1.07432e-05 -2.24898e-05)
(6.39212e-07 8.52428e-06 -2.20705e-05)