/*--------------------------------*- C++ -*----------------------------------*\
| =========                 |                                                 |
| \\      /  F ield         | OpenFOAM: The Open Source CFD Toolbox           |
|  \\    /   O peration     | Version:  2106                                  |
|   \\  /    A nd           | Website:  www.openfoam.com                      |
|    \\/     M anipulation  |                                                 |
\*---------------------------------------------------------------------------*/
FoamFile
{
    version     2.0;
    format      ascii;
    arch        "LSB;label=32;scalar=64";
    class       volSymmTensorField;
    location    "309";
    object      epsilon;
}
// * * * * * * * * * * * * * * * * * * * * * * * * * * * * * * * * * * * * * //

dimensions      [0 0 0 0 0 0 0];

internalField   nonuniform List<symmTensor> 
9000
(
(-0.3627 -0.0199022 0.246903 -0.60363 0.106678 1.29182)
(-0.0924687 -0.00246752 0.192282 -0.861453 0.153513 1.80051)
(-0.032838 0.0131431 0.0570359 -0.838735 0.196753 1.58746)
(-0.0046398 0.00732355 0.0134811 -0.612656 0.195168 0.930924)
(0.00542032 0.00288459 0.0316054 -0.487361 0.138451 0.610539)
(0.00502656 -0.00205309 0.0552045 -0.468532 0.156605 0.52975)
(-0.00065885 -0.0114668 0.0622564 -0.531557 0.131728 0.734881)
(-0.00577773 -0.00126968 0.0610046 -0.748167 0.131931 1.39159)
(-0.00595227 0.000233156 0.0294497 -0.682649 0.188616 1.13203)
(-0.011174 5.2755e-05 0.00838264 -0.748241 0.131116 1.39678)
(-0.00115684 0.0123849 -0.0380092 -0.575665 0.122903 0.824268)
(0.0119004 0.000784252 0.00922844 -0.388235 0.100589 0.335434)
(-0.000269396 -0.00836364 0.0363039 -0.554435 0.126589 0.769528)
(-0.00661754 -0.000705874 0.00536703 -0.61992 0.126729 1.03884)
(-0.00465451 0.00430661 -0.0018245 -0.595372 0.132187 0.879659)
(0.00142729 -0.00492897 -0.0276444 -0.584349 0.127419 0.844534)
(0.00640846 -0.0034512 0.00296763 -0.625963 0.122661 1.043)
(-0.00595762 -0.00404331 0.0147496 -0.697511 0.13965 1.17955)
(-0.0153047 0.00354122 -0.0362037 -0.720156 0.103283 1.32296)
(-9.19953e-05 0.0138139 -0.0768456 -0.551834 0.111099 0.759758)
(0.0167397 0.00193901 -0.0344062 -0.381378 0.106483 0.313318)
(0.00250834 -0.0140341 0.0192523 -0.548553 0.15778 0.756922)
(-0.0116262 -0.00252933 -0.0153156 -0.806558 0.141119 1.55966)
(-0.00631357 0.00721783 -0.0364512 -0.69216 0.1943 1.1517)
(-0.0126158 -0.000710592 -0.0586853 -0.73477 0.173343 1.26882)
(-0.00912443 0.00734149 -0.124973 -0.674179 0.159367 1.09437)
(0.00645028 0.00515273 -0.11083 -0.54719 0.16476 0.728867)
(-0.0124567 -0.00866679 -0.0763405 -0.595946 0.16387 0.920925)
(-0.0376221 -0.00324283 -0.148618 -0.667363 0.165535 1.21772)
(-0.177266 -0.0146766 -0.0878619 -0.351493 0.112017 0.447425)
(-0.271458 -0.0393561 0.187944 -0.389333 0.058416 0.737058)
(-0.0719605 -0.0145646 0.149662 -0.452574 0.102726 0.834714)
(-0.0211067 0.0324321 0.0923406 -0.517938 0.202516 0.839997)
(-0.00512329 0.0255625 0.0678545 -0.438243 0.256586 0.555504)
(-0.0012958 0.0095688 0.0604779 -0.359039 0.172668 0.401539)
(-0.0021747 -0.00573657 0.0482391 -0.369995 0.201794 0.365607)
(-0.00300944 -0.0311605 0.0228761 -0.371628 0.143495 0.415733)
(-0.00178349 -0.00709747 0.0291712 -0.410162 0.0776609 0.594471)
(-0.000132083 0.000204455 0.0310079 -0.455221 0.222651 0.593361)
(-0.00453521 0.00159147 0.0383142 -0.414637 0.0732634 0.628189)
(-0.00371227 0.0344298 0.0250628 -0.405102 0.0939318 0.503987)
(0.000861783 0.00269581 0.0111265 -0.31271 0.109987 0.256206)
(-0.00145508 -0.0220098 -0.00792092 -0.394052 0.107725 0.469782)
(-0.0013541 -0.00302525 -0.000253144 -0.366328 0.0953328 0.447975)
(-0.0045715 0.00711818 0.0127592 -0.41831 0.110707 0.550868)
(-0.00150635 -0.00832384 -0.0407142 -0.412173 0.102891 0.530394)
(0.00597552 -0.0101511 -0.0166385 -0.367415 0.0855683 0.441325)
(-0.000949323 -0.0123013 0.00650354 -0.444482 0.100686 0.639567)
(-0.00829792 0.0113187 -0.00827707 -0.399829 0.0135546 0.598362)
(-0.00408745 0.0377692 -0.0220428 -0.392556 0.0723645 0.46931)
(0.00327701 0.00628014 -0.0441642 -0.309881 0.125418 0.237827)
(0.000398139 -0.0396311 -0.0502826 -0.398405 0.183555 0.440999)
(-0.00283184 -0.0095646 -0.0426229 -0.436508 0.0829059 0.672813)
(-0.00230459 0.0142942 -0.0221739 -0.467551 0.233123 0.623165)
(-0.0100342 -0.00252217 -0.046988 -0.482359 0.171084 0.702547)
(-0.00804792 0.0198849 -0.0914585 -0.461342 0.155376 0.660148)
(-0.000482961 0.0148119 -0.0955501 -0.411055 0.197288 0.506516)
(-0.0125302 -0.0161612 -0.106486 -0.406346 0.19999 0.550498)
(-0.0377747 7.56706e-05 -0.129383 -0.381429 0.179882 0.61872)
(-0.161325 -0.0111922 -0.0866377 -0.269616 0.15213 0.275268)
(-0.191531 -0.0359478 0.137667 -0.194209 -0.0242843 0.255031)
(-0.0499705 -0.0180775 0.113936 -0.163508 0.0679782 0.188089)
(-0.00990087 0.02075 0.111725 -0.259095 0.12033 0.278363)
(-0.00603077 0.020301 0.101086 -0.287127 0.153321 0.25738)
(-0.00715388 0.0078294 0.0769432 -0.249439 0.0769874 0.215992)
(-0.00893014 -0.00414202 0.0441239 -0.268399 0.0905559 0.195432)
(-0.00483006 -0.0221604 -0.00280563 -0.231114 0.0526855 0.136004)
(0.00222596 -0.0057686 0.00972846 -0.161879 0.0305177 0.0437106)
(0.00432216 -0.000885347 0.0310128 -0.263463 0.128355 0.181017)
(0.00143932 -0.00135652 0.0535968 -0.175106 0.0208228 0.107741)
(-0.00532564 0.0239868 0.0629937 -0.237946 -0.0138232 0.166813)
(-0.00870435 0.00306203 0.013567 -0.235175 0.00118412 0.135085)
(-0.00275249 -0.0131236 -0.0312799 -0.237886 0.0016015 0.158098)
(0.00293326 -0.00336543 -0.00557483 -0.183132 0.0283861 0.0474295)
(-0.00428949 0.000443146 0.0152204 -0.251558 0.00354047 0.221252)
(-0.00402886 -0.00133849 -0.0422828 -0.248626 -0.00442825 0.210037)
(0.00499808 -0.00732977 -0.0286891 -0.180111 0.0194839 0.032446)
(0.00367884 -0.0120582 -0.00294447 -0.232291 0.0124862 0.205371)
(-0.00123616 0.00845956 0.0110065 -0.164568 -0.0461087 0.0888264)
(-0.00701431 0.0288766 0.0126309 -0.23289 -0.0377453 0.149035)
(-0.00897343 0.00843423 -0.0442241 -0.237983 0.0177853 0.12938)
(-0.00223453 -0.0275342 -0.0909492 -0.260974 0.0767343 0.170475)
(0.00486249 -0.00818675 -0.0614829 -0.169835 0.0355727 0.069903)
(0.000801552 0.00542868 -0.0188563 -0.278101 0.133795 0.216904)
(-0.00779067 -0.00504928 -0.0443032 -0.264566 0.0735094 0.244374)
(-0.00603978 0.0164035 -0.0725373 -0.267369 0.0457545 0.255906)
(-0.00580634 0.0181906 -0.0832254 -0.275619 0.0853668 0.268564)
(-0.0140917 -0.0030004 -0.1143 -0.249822 0.11246 0.258057)
(-0.0385153 0.000374579 -0.123922 -0.187586 0.1299 0.247221)
(-0.144213 -0.00700129 -0.0926179 -0.194142 0.0788722 0.111554)
(-0.122744 -0.0225567 0.101613 -0.0579822 -0.0755344 -0.132989)
(-0.0339265 -0.0127483 0.0819593 -0.0432426 0.0479132 -0.164236)
(-0.00163135 0.00181418 0.109567 -0.101114 0.0468417 -0.133738)
(-0.00520772 0.00665413 0.113975 -0.159129 0.0362372 -0.0373458)
(-0.0101434 0.00320479 0.0878136 -0.145617 -0.0289267 -0.0313818)
(-0.0127549 -0.000348777 0.0445147 -0.155952 -0.0286225 -0.0338859)
(-0.00614765 -0.00475599 -0.00772729 -0.117407 -0.0335385 -0.126011)
(0.00392743 -0.00137154 0.00145799 -0.0445394 0.000386402 -0.288819)
(0.00686669 -0.00193822 0.0296074 -0.124841 0.0324677 -0.161013)
(0.00471383 -0.00486412 0.059712 -0.0564761 -0.0234016 -0.259318)
(-0.00607816 0.00540947 0.0752686 -0.1064 -0.0952795 -0.12856)
(-0.0132391 0.002328 0.0154804 -0.135332 -0.104121 -0.0498303)
(-0.00379296 0.000230436 -0.0342611 -0.113851 -0.0844425 -0.116531)
(0.0041524 -0.00255676 -0.00953632 -0.0835719 -0.032958 -0.216665)
(-0.0032224 -0.00585329 0.00853979 -0.120493 -0.0884955 -0.103658)
(-0.004818 0.00582799 -0.0341233 -0.118903 -0.0958206 -0.109323)
(0.00344561 -0.00170911 -0.033007 -0.0792998 -0.0395175 -0.236827)
(0.00641968 -0.00790623 -0.00918411 -0.0967389 -0.0630217 -0.155251)
(0.00290928 0.00239189 0.020379 -0.0455101 -0.0854114 -0.275455)
(-0.00849576 0.0108135 0.0245916 -0.104425 -0.11914 -0.136709)
(-0.0152715 0.00763072 -0.0416469 -0.141869 -0.09197 -0.0474085)
(-0.00436411 -0.00591376 -0.101922 -0.138778 -0.0314613 -0.103632)
(0.00770962 -0.0036242 -0.0721032 -0.0474762 0.00388317 -0.2881)
(0.0024994 -0.00509399 -0.0282389 -0.13665 0.0301856 -0.130957)
(-0.00526587 -0.00646156 -0.0464811 -0.112533 -0.012136 -0.131311)
(-0.00324025 0.00906767 -0.0622657 -0.120661 -0.043555 -0.0848221)
(-0.00763707 0.0165905 -0.0659624 -0.149759 -0.0248303 0.0185089)
(-0.0163613 0.0107351 -0.103904 -0.130489 0.0203197 -0.0033194)
(-0.0395705 0.00104719 -0.124644 -0.0894871 0.0717427 0.018456)
(-0.118732 -0.00405405 -0.0972342 -0.119498 -0.00525486 -0.0763485)
(-0.0758168 -0.00898375 0.0797845 0.017129 -0.0811077 -0.380486)
(-0.0257408 -0.00448846 0.0727399 -0.0100556 0.0269242 -0.352829)
(0.00176462 -0.0105614 0.0954449 -0.0190355 0.0141242 -0.384769)
(-0.00341406 -0.00589658 0.111942 -0.0631201 -0.0287937 -0.274857)
(-0.0103563 -0.0021752 0.0904879 -0.0577405 -0.08554 -0.243731)
(-0.0132911 0.00265746 0.0478944 -0.05813 -0.089867 -0.24926)
(-0.00683909 0.00772694 0.00107216 -0.0392399 -0.074906 -0.321294)
(0.00360068 0.00349799 0.0019934 -0.00131139 -0.0147741 -0.454692)
(0.00740935 -0.00162929 0.0290071 -0.0356621 -0.0150948 -0.396777)
(0.00517524 -0.00834249 0.0587882 -0.00510773 -0.0380291 -0.44426)
(-0.00604102 -0.00825376 0.0697833 -0.0229398 -0.126663 -0.323311)
(-0.0132893 0.00106924 0.0166285 -0.0432625 -0.152139 -0.263354)
(-0.00435177 0.00809628 -0.0258812 -0.0341245 -0.122977 -0.29721)
(0.00310082 -0.000978331 -0.0110682 -0.0307501 -0.0704138 -0.372292)
(-0.00185592 -0.007825 -0.000262752 -0.0326146 -0.125499 -0.313566)
(-0.00419278 0.00882918 -0.0230578 -0.0316148 -0.13218 -0.316327)
(0.00192118 0.00338901 -0.0312618 -0.0268645 -0.0749348 -0.395173)
(0.00704514 -0.0031039 -0.0112128 -0.0198136 -0.0933791 -0.401882)
(0.00385034 -0.00347182 0.0211922 0.00470652 -0.0922094 -0.455437)
(-0.00872624 -0.00316103 0.0200379 -0.0220766 -0.150114 -0.32625)
(-0.0160799 0.00629831 -0.0395258 -0.0492802 -0.145985 -0.261812)
(-0.00557977 0.00885599 -0.0947103 -0.0453892 -0.0852818 -0.325182)
(0.00662413 0.00093029 -0.076038 -0.00330804 -0.0143663 -0.465532)
(0.00285043 -0.0097583 -0.0425089 -0.041537 -0.0224202 -0.380896)
(-0.00288431 -0.00732899 -0.0514132 -0.0205714 -0.0477864 -0.386798)
(-0.000940606 0.00152814 -0.058204 -0.0295951 -0.0803035 -0.310224)
(-0.00694104 0.0101456 -0.0558586 -0.0515854 -0.0802762 -0.212419)
(-0.0175748 0.0165553 -0.0879568 -0.0492821 -0.0280551 -0.197296)
(-0.0403989 0.00328627 -0.125364 -0.0402586 0.0314839 -0.109271)
(-0.0940912 -0.000579029 -0.0964324 -0.0596569 -0.0559686 -0.239641)
(-0.0550602 0.000956598 0.0719518 0.0381953 -0.0645983 -0.479667)
(-0.0241604 0.00348415 0.0627773 -0.0104633 0.00457829 -0.387778)
(0.00198412 -0.0145292 0.0776227 0.00583627 0.00351413 -0.488143)
(-0.00153198 -0.013626 0.101125 -0.0120266 -0.051422 -0.413483)
(-0.00870067 -0.00539819 0.087344 -0.00192626 -0.0986766 -0.381418)
(-0.0117078 0.00327385 0.0522823 0.000232831 -0.101762 -0.388978)
(-0.00687324 0.0120989 0.0142723 -0.00419782 -0.0856365 -0.421431)
(0.0023198 0.00731164 0.00803392 0.00584782 -0.0250398 -0.509744)
(0.00632944 -0.00104812 0.0294259 0.00368041 -0.0282184 -0.510707)
(0.00404099 -0.0106343 0.0530485 0.00363674 -0.0450152 -0.499488)
(-0.00541112 -0.0135988 0.0578273 0.01543 -0.126668 -0.450871)
(-0.0111804 -0.000376917 0.016731 0.0124115 -0.153878 -0.381166)
(-0.00441126 0.00948099 -0.0152009 0.00124322 -0.130438 -0.414973)
(0.00134731 0.00105695 -0.0105989 -0.00667927 -0.0888897 -0.444915)
(-0.000674477 -0.00604473 -0.00692934 0.0121373 -0.127696 -0.450239)
(-0.00283466 0.00788669 -0.0131387 0.0128037 -0.13396 -0.452034)
(0.000726509 0.00582349 -0.0251346 -0.00387206 -0.0920152 -0.467294)
(0.0059226 -0.000209887 -0.0105946 0.00820265 -0.0970405 -0.480481)
(0.00292563 -0.00696363 0.015714 0.0109132 -0.0927209 -0.503247)
(-0.00791918 -0.00877405 0.00898246 0.0159924 -0.149679 -0.451539)
(-0.014079 0.00546006 -0.0370247 0.00903675 -0.150962 -0.384867)
(-0.00608445 0.0140952 -0.0820709 0.00419784 -0.0961209 -0.45183)
(0.0039982 0.00404801 -0.0754955 0.0044754 -0.0278781 -0.526451)
(0.00219027 -0.00886544 -0.0548383 0.00280384 -0.0368501 -0.509036)
(-0.00148608 -0.00757525 -0.0579842 0.0159371 -0.0515059 -0.510181)
(0.000293958 -0.00272952 -0.0627873 0.0109606 -0.0855927 -0.453432)
(-0.00491864 0.00314602 -0.0540112 0.00379617 -0.0883558 -0.356574)
(-0.0166424 0.0165189 -0.0754378 -0.011891 -0.0443373 -0.298891)
(-0.0392301 0.00841968 -0.121189 -0.0190266 0.00662668 -0.163786)
(-0.0762543 0.00739948 -0.0878284 -0.0277688 -0.0791728 -0.340094)
(-0.0542986 0.0064478 0.0754145 0.0262217 -0.0510193 -0.468829)
(-0.0269019 0.00900357 0.0718253 -0.018704 -0.0223522 -0.389657)
(-0.0010733 -0.0132932 0.0623332 -0.000167011 -0.00715952 -0.492042)
(-2.33821e-05 -0.0164777 0.0871294 0.00544875 -0.057291 -0.464184)
(-0.0062859 -0.00511898 0.081428 0.0250049 -0.0910516 -0.432378)
(-0.00954204 0.00141796 0.0552226 0.0211546 -0.0926085 -0.44546)
(-0.00622698 0.0107045 0.0258951 0.00127024 -0.0889299 -0.444386)
(0.00101408 0.00959543 0.016663 0.00011198 -0.0361765 -0.502414)
(0.00434944 -0.00100257 0.0306131 0.00916628 -0.0314471 -0.530127)
(0.00232616 -0.0108539 0.0454189 0.00150565 -0.0582821 -0.479016)
(-0.00457404 -0.012905 0.04565 0.024318 -0.115675 -0.484287)
(-0.00859751 -0.00211312 0.0160584 0.0302958 -0.133693 -0.444352)
(-0.00393139 0.0072728 -0.00693415 0.00696558 -0.129329 -0.442177)
(2.66738e-05 0.00353696 -0.00793008 0.0014148 -0.0975397 -0.461243)
(-0.000213969 -0.00254509 -0.0092664 0.0275745 -0.116077 -0.475821)
(-0.00177372 0.00487176 -0.00719541 0.0280363 -0.121947 -0.477598)
(6.65112e-05 0.00496522 -0.019035 0.00283053 -0.100033 -0.48139)
(0.00421877 0.000333594 -0.00916887 0.0118512 -0.0992033 -0.489108)
(0.00144559 -0.00742625 0.00837101 0.00691305 -0.101764 -0.477015)
(-0.00672224 -0.00798581 -0.00151142 0.0249157 -0.138177 -0.484352)
(-0.0113461 0.00472137 -0.0348427 0.0286541 -0.132341 -0.452964)
(-0.00607446 0.0133681 -0.0703152 0.0172576 -0.0910583 -0.490989)
(0.00140303 0.00554161 -0.072536 -0.000695405 -0.0414179 -0.522046)
(0.00106136 -0.00570209 -0.0626589 0.0102994 -0.0394777 -0.537465)
(-0.000638218 -0.00672262 -0.0643622 0.0158997 -0.0492461 -0.531199)
(0.000491419 -0.00278218 -0.066582 0.0180464 -0.0785939 -0.487052)
(-0.00273695 -0.000939462 -0.0599631 0.0177811 -0.0759504 -0.417196)
(-0.0131036 0.0160021 -0.0671961 -0.00509762 -0.0519246 -0.325796)
(-0.0334223 0.0163552 -0.108242 -0.0137505 -0.0105961 -0.172267)
(-0.0642513 0.0220616 -0.0691307 -0.0169954 -0.0921974 -0.381546)
(-0.0663327 0.00768253 0.0875789 0.00616493 -0.0505901 -0.403114)
(-0.0316562 0.00812452 0.078856 -0.0237174 -0.0494767 -0.358462)
(-0.00501353 -0.0105586 0.0503286 -0.0118729 -0.0247602 -0.451794)
(0.00150604 -0.0152243 0.0723861 0.00911232 -0.0582804 -0.460949)
(-0.00374094 -0.00393093 0.0791307 0.0287804 -0.0720002 -0.450171)
(-0.00802635 -0.0016785 0.0556847 0.0213366 -0.0810709 -0.445481)
(-0.00507005 0.00703416 0.0334875 -0.00156949 -0.0937531 -0.426692)
(8.48796e-05 0.0101978 0.0258137 -0.00567649 -0.0480358 -0.468523)
(0.00219382 -0.000804095 0.0315497 0.00148258 -0.0369785 -0.499464)
(0.000817531 -0.00930572 0.0386766 0.00251267 -0.0650111 -0.46942)
(-0.00397501 -0.0103309 0.0363287 0.0241128 -0.106147 -0.45646)
(-0.006476 -0.00396414 0.0140067 0.026115 -0.116656 -0.443599)
(-0.00295373 0.00451924 -0.00195719 0.00804386 -0.13124 -0.417573)
(-0.000559368 0.00562187 -0.00355549 0.0035059 -0.101488 -0.448019)
(-0.000439501 0.00053504 -0.00799465 0.027434 -0.101734 -0.459703)
(-0.00136945 0.00193155 -0.00463277 0.0278113 -0.107296 -0.461946)
(-0.00026641 0.00303862 -0.015156 0.0032334 -0.104135 -0.464735)
(0.00271764 0.000214145 -0.00854022 0.00795528 -0.0979397 -0.474528)
(0.000303544 -0.00624226 0.00171048 0.0073691 -0.104914 -0.464851)
(-0.00560824 -0.00557241 -0.00828823 0.0248573 -0.128043 -0.45689)
(-0.00904427 0.00373619 -0.0331034 0.0240419 -0.116067 -0.453132)
(-0.00574551 0.010546 -0.0615897 0.0124143 -0.0867121 -0.476547)
(-0.000536521 0.00583688 -0.0686601 -0.00685737 -0.0550643 -0.488365)
(-0.000102871 -0.00283895 -0.0665183 0.00251989 -0.0445857 -0.510031)
(-0.000108811 -0.00518773 -0.0693158 0.00335085 -0.0537401 -0.498496)
(0.000391947 -0.0031695 -0.0672851 0.0125954 -0.0760436 -0.449229)
(-0.000270111 -0.00325354 -0.0634965 0.0126496 -0.0714437 -0.39627)
(-0.00754086 0.0168874 -0.0587094 -0.0078824 -0.0605357 -0.313539)
(-0.0207658 0.0221072 -0.0836051 -0.0167613 -0.024397 -0.157161)
(-0.0535829 0.0369189 -0.0359361 -0.0112166 -0.102331 -0.389433)
(-0.0834382 0.00614228 0.103781 -0.00497195 -0.0582419 -0.327338)
(-0.0364119 0.00578318 0.0838193 -0.0221171 -0.0722366 -0.32379)
(-0.00846913 -0.00756498 0.0411995 -0.0146964 -0.0436132 -0.407092)
(0.00270385 -0.0098606 0.0576598 0.0112097 -0.056708 -0.421256)
(-0.00160082 -0.00413722 0.0756282 0.0172954 -0.0590574 -0.422148)
(-0.00693584 -0.00389242 0.053972 0.0159506 -0.0724382 -0.419783)
(-0.00374471 0.00403314 0.0368236 0.00296788 -0.098507 -0.389336)
(-0.000346464 0.00918624 0.0338696 -0.0064331 -0.0570558 -0.429546)
(0.000376256 -0.000316584 0.0326165 -0.0054006 -0.0453147 -0.454071)
(-0.000409222 -0.00672725 0.0337874 0.00209858 -0.0672247 -0.441589)
(-0.00377319 -0.00800031 0.0294817 0.0229628 -0.09384 -0.420329)
(-0.0048907 -0.00489221 0.0107923 0.0183685 -0.105439 -0.41874)
(-0.0017686 0.00255363 0.000877394 0.0156516 -0.125665 -0.397417)
(-0.000650963 0.0058812 0.00118808 0.00488468 -0.101552 -0.424226)
(-0.000965932 0.00222649 -0.00496346 0.0163476 -0.0878468 -0.432861)
(-0.00138824 -3.1682e-05 -0.00396257 0.0167448 -0.0930833 -0.435483)
(-0.000389549 0.00144092 -0.0128 0.00304267 -0.105394 -0.436556)
(0.0016249 0.000292095 -0.00815728 0.00506904 -0.100488 -0.423606)
(-0.00055445 -0.0041396 -0.00300969 0.00694178 -0.103731 -0.436805)
(-0.00486744 -0.00397468 -0.0128638 0.0238546 -0.11517 -0.42161)
(-0.00726903 0.00227237 -0.0324685 0.0145403 -0.107083 -0.426353)
(-0.00519205 0.00783447 -0.0556617 0.00539006 -0.0862758 -0.442389)
(-0.0018256 0.00550294 -0.0647268 -0.00898023 -0.0663015 -0.447403)
(-0.00107647 -0.00105647 -0.0679676 -0.00463389 -0.0530579 -0.464962)
(-0.000390165 -0.00343275 -0.0724269 -0.00402134 -0.0630385 -0.453284)
(-0.00035574 -0.00441755 -0.0712175 0.00810773 -0.0751592 -0.404587)
(0.00312702 -0.00382274 -0.0732679 0.00669847 -0.0674466 -0.378498)
(-0.00104746 0.0136973 -0.0445915 -0.00482278 -0.0691624 -0.282404)
(-0.0039771 0.0163656 -0.0501816 -0.0166792 -0.0391006 -0.131183)
(-0.0441856 0.0345305 0.0130586 0.00284158 -0.107676 -0.382898)
(-0.101075 0.00550611 0.118094 -0.00400454 -0.0639388 -0.260194)
(-0.0403185 0.00463079 0.0888655 -0.0133559 -0.0850986 -0.298594)
(-0.0104238 -0.00389091 0.0334468 -0.00830567 -0.0542824 -0.37063)
(0.0034697 -0.00312958 0.0509321 0.0121071 -0.0493671 -0.382355)
(-0.000712076 -0.00478699 0.0707249 0.00516649 -0.0542307 -0.381208)
(-0.00583665 -0.00377186 0.0514672 0.012428 -0.0650271 -0.389108)
(-0.00264245 0.00268207 0.03902 0.0153523 -0.0911691 -0.368435)
(-0.000615191 0.00669772 0.0399844 -0.00301483 -0.0597228 -0.393625)
(-0.000910602 -0.000204907 0.0337992 -0.00624666 -0.0521883 -0.413374)
(-0.00133497 -0.00443237 0.030567 0.000818616 -0.0667435 -0.407724)
(-0.00375323 -0.00599732 0.0245132 0.0133177 -0.0791351 -0.386858)
(-0.00377269 -0.00426301 0.00789647 0.0135445 -0.0964828 -0.389408)
(-0.000865231 0.00134042 0.00248339 0.0221724 -0.111279 -0.375107)
(-0.000546321 0.00390391 0.00470216 0.00690277 -0.0978012 -0.399044)
(-0.00135997 0.00206406 -0.00182582 0.00339219 -0.0853753 -0.393857)
(-0.00145613 -0.000431471 -0.00401783 0.00379772 -0.0902315 -0.396399)
(-0.000448003 0.00131554 -0.0108529 0.00423451 -0.103498 -0.407433)
(0.000766732 0.000280227 -0.00786045 0.0079423 -0.0975789 -0.386587)
(-0.00119897 -0.00260038 -0.00638365 0.00518836 -0.0999211 -0.402941)
(-0.00441775 -0.00279561 -0.0163319 0.0145301 -0.0999712 -0.389189)
(-0.00592461 0.00119121 -0.0325914 0.00922894 -0.101627 -0.396238)
(-0.00454438 0.00586421 -0.0516044 0.0032933 -0.0861148 -0.408922)
(-0.00264382 0.00496687 -0.0610605 -0.00663314 -0.0721464 -0.409214)
(-0.00186339 7.7052e-05 -0.0681318 -0.00530273 -0.0598987 -0.423249)
(-0.00120756 -0.00228929 -0.0741669 -0.00172949 -0.0685012 -0.413391)
(-0.000757189 -0.00368616 -0.077711 0.00358178 -0.0716656 -0.373765)
(0.00565903 -0.00132287 -0.0778049 0.00287869 -0.0664242 -0.34878)
(0.00203239 0.0063189 -0.038562 0.00466649 -0.0674711 -0.262289)
(0.00697635 0.00493133 -0.04231 -0.0106399 -0.0432233 -0.127615)
(-0.0371276 0.013586 0.0423635 0.0237491 -0.0964715 -0.390837)
(-0.120029 0.00990997 0.128186 0.00438013 -0.0640058 -0.19744)
(-0.0442182 0.00492738 0.0946772 -0.00123451 -0.0861281 -0.281494)
(-0.0112982 0.0021841 0.0259992 0.0014989 -0.055523 -0.332775)
(0.00356502 -0.000589672 0.0509892 0.00532018 -0.0391873 -0.350463)
(-0.000738204 -0.00493271 0.0654449 0.000313283 -0.0534666 -0.347728)
(-0.00464308 -0.00177638 0.0499849 0.0124048 -0.0562095 -0.363238)
(-0.00206348 0.00228243 0.040975 0.0252764 -0.0725931 -0.349866)
(-0.000963113 0.00369798 0.0435745 0.000699364 -0.0560571 -0.359399)
(-0.00171684 -0.000504951 0.0345235 -0.00158947 -0.0536984 -0.383931)
(-0.00196039 -0.00381458 0.0282301 0.00213282 -0.064224 -0.378618)
(-0.00361425 -0.00443635 0.0209835 -0.000123217 -0.0757172 -0.344382)
(-0.00299868 -0.0022116 0.00656991 0.0118571 -0.0876819 -0.363292)
(-0.000493739 0.000745063 0.0034838 0.0238418 -0.0935298 -0.351559)
(-0.000459225 0.00150677 0.00625938 0.0102709 -0.090477 -0.377841)
(-0.00141587 0.000984527 0.000376042 0.0014708 -0.085975 -0.369668)
(-0.00136218 2.69013e-05 -0.00384285 0.00184578 -0.0904987 -0.371754)
(-0.000562132 0.00178466 -0.00888168 0.00737732 -0.09808 -0.382922)
(-4.14344e-05 0.00010637 -0.00774754 0.0071058 -0.0880301 -0.366239)
(-0.00161818 -0.00251504 -0.00906558 0.00535017 -0.0950871 -0.373237)
(-0.00399738 -0.00168035 -0.0186176 0.00186471 -0.0958421 -0.347919)
(-0.00493064 0.00166875 -0.0325283 0.00910244 -0.0955545 -0.371681)
(-0.00397726 0.00461882 -0.0484765 0.00641374 -0.0820864 -0.383508)
(-0.00315428 0.00430182 -0.0576659 -0.00259861 -0.0716919 -0.37402)
(-0.00261754 0.000933194 -0.0673993 -0.000626337 -0.0609944 -0.391269)
(-0.00174561 -0.00256902 -0.0752024 0.00722103 -0.0667557 -0.373758)
(-0.00056312 -0.00163015 -0.080332 0.00252467 -0.0705969 -0.341928)
(0.00633416 -0.000186808 -0.0759868 0.00628595 -0.0648583 -0.314132)
(0.0025423 -0.000417712 -0.0379769 0.0118139 -0.0572722 -0.24024)
(0.00853258 -0.00638593 -0.0324432 -0.00140944 -0.0448164 -0.108675)
(-0.0382506 -0.00829063 0.0500255 0.0384214 -0.0697558 -0.395402)
(-0.133826 0.0132541 0.147022 0.0108337 -0.0527653 -0.167465)
(-0.0498626 0.0051363 0.100872 0.0104363 -0.0768877 -0.26809)
(-0.0124944 0.00552306 0.031586 0.00792759 -0.0457792 -0.320029)
(0.00222122 -0.00269326 0.0483744 -0.00274049 -0.0380908 -0.31623)
(-0.000413709 -0.00390074 0.0607589 0.00445858 -0.0508185 -0.330205)
(-0.00339849 0.000527294 0.0505041 0.0151647 -0.0441159 -0.345662)
(-0.00198519 0.00175858 0.0433552 0.0291473 -0.0493216 -0.331111)
(-0.00146138 0.00161758 0.0448299 0.00749367 -0.0508912 -0.326179)
(-0.00230119 -0.000531341 0.0345125 0.00591798 -0.0481686 -0.365376)
(-0.00234224 -0.0045494 0.0258445 0.0069197 -0.0579471 -0.359093)
(-0.00319588 -0.00330533 0.0185475 -0.00218982 -0.0778101 -0.3197)
(-0.00244368 0.000183268 0.00691625 0.0145514 -0.0769369 -0.346113)
(-0.000493355 0.000569698 0.0042721 0.0221902 -0.0742328 -0.343971)
(-0.000448106 0.000196759 0.00669634 0.0157171 -0.078718 -0.363491)
(-0.00129213 7.16601e-05 0.00162799 0.00926893 -0.0806925 -0.362466)
(-0.00119851 0.000375964 -0.00334472 0.00960467 -0.0849305 -0.363919)
(-0.000731781 0.00115046 -0.00714363 0.0130468 -0.0881235 -0.365499)
(-0.000769576 -0.000158203 -0.00774474 0.00352477 -0.0831142 -0.341312)
(-0.00183294 -0.00261802 -0.011588 0.00989549 -0.0874905 -0.353589)
(-0.00340556 -0.000651196 -0.0198713 0.00110321 -0.0963231 -0.32397)
(-0.00421284 0.00324487 -0.0313117 0.0139093 -0.0855763 -0.356042)
(-0.00368788 0.00344075 -0.0456826 0.0123878 -0.0722333 -0.366446)
(-0.00349962 0.00329223 -0.0546375 0.00563582 -0.0683295 -0.340257)
(-0.0034972 0.00205716 -0.0663409 0.00625509 -0.0550989 -0.369218)
(-0.00197539 -0.00276241 -0.0783591 0.0149184 -0.0526572 -0.362336)
(-0.000485451 -0.00172178 -0.0797029 0.00956626 -0.0650673 -0.312185)
(0.00555229 0.000132939 -0.0795521 0.0139666 -0.0538079 -0.309435)
(0.000330742 -0.00351665 -0.0420933 0.0156586 -0.0447443 -0.21962)
(0.00281558 -0.0104913 -0.0507661 0.0106454 -0.0375973 -0.109906)
(-0.04552 -0.0187306 0.0364674 0.039396 -0.0366802 -0.382682)
(-0.146382 0.0100579 0.161247 0.0109425 -0.0394142 -0.13517)
(-0.0551701 0.00404638 0.105783 0.0191068 -0.0606909 -0.257101)
(-0.0142228 0.0031436 0.0340005 0.0102847 -0.0349968 -0.304048)
(0.000993905 -0.00534226 0.0432176 0.00211446 -0.038716 -0.304346)
(0.000623596 -0.00193582 0.0571555 0.0144307 -0.0403504 -0.325303)
(-0.0023226 0.00192466 0.0523353 0.0187945 -0.0280078 -0.335349)
(-0.00206081 0.000987215 0.0457525 0.0268543 -0.0242709 -0.323824)
(-0.0018665 0.000440945 0.0460257 0.0177051 -0.0363952 -0.334685)
(-0.00295797 -0.000564836 0.0345523 0.0134058 -0.0358138 -0.35492)
(-0.00263581 -0.00523404 0.0229306 0.0140052 -0.046257 -0.349092)
(-0.00252994 -0.00232872 0.0169359 0.0102183 -0.07442 -0.319344)
(-0.00203934 0.00167275 0.00856674 0.0213761 -0.0607512 -0.337609)
(-0.000626805 0.000544335 0.00488644 0.0216416 -0.0581866 -0.333229)
(-0.000482597 5.04332e-05 0.00700655 0.0221955 -0.0609879 -0.353346)
(-0.00119108 -0.000433279 0.00234611 0.0190695 -0.0664161 -0.362671)
(-0.00115259 0.000428027 -0.00282328 0.0194167 -0.0703988 -0.363554)
(-0.000915715 -0.000396905 -0.00644733 0.0205662 -0.0717468 -0.35376)
(-0.00122875 -0.000370668 -0.00786217 0.00954351 -0.0785003 -0.333087)
(-0.00187995 -0.00194909 -0.0137493 0.0186786 -0.0734057 -0.343582)
(-0.0026904 0.000138478 -0.0202677 0.014619 -0.0896174 -0.321379)
(-0.00380126 0.00442355 -0.0287093 0.0219593 -0.0687635 -0.3474)
(-0.00379023 0.00250008 -0.0437112 0.0185601 -0.0565112 -0.355802)
(-0.00358235 0.00229911 -0.0532297 0.0174967 -0.0538445 -0.346727)
(-0.00408564 0.00246931 -0.0646404 0.012787 -0.0429479 -0.355338)
(-0.00267716 -0.00173848 -0.0803517 0.0166613 -0.0357472 -0.343205)
(-0.000244461 -0.00364619 -0.0822629 0.0193974 -0.0510807 -0.30505)
(0.00509175 0.00149126 -0.0793075 0.0190959 -0.0382764 -0.30047)
(-0.00131205 -0.000342898 -0.0490384 0.0187205 -0.0293828 -0.216493)
(-0.0043716 -0.000273419 -0.0619699 0.0182556 -0.0232254 -0.103995)
(-0.0548708 -0.01112 0.00839758 0.0272994 -0.00713404 -0.358024)
(-0.154995 0.00492807 0.170468 0.0102303 -0.026988 -0.110165)
(-0.0586478 0.00247462 0.108795 0.0243816 -0.0404738 -0.249689)
(-0.016091 0.000469248 0.032781 0.0147099 -0.0225828 -0.296644)
(0.000544412 -0.00615034 0.0363516 0.0188769 -0.0285419 -0.313532)
(0.0021398 0.000319111 0.0545379 0.024664 -0.0215118 -0.318148)
(-0.00165413 0.0018757 0.0543371 0.02141 -0.00882857 -0.329402)
(-0.00219445 0.000653424 0.0464743 0.0225667 -0.00557246 -0.301568)
(-0.00209731 -4.33922e-05 0.0465149 0.0239398 -0.0158604 -0.339694)
(-0.0035616 -0.000708021 0.0344841 0.0187939 -0.018453 -0.349049)
(-0.00281073 -0.00468525 0.0198996 0.0212215 -0.0287002 -0.34612)
(-0.00181651 -0.00126621 0.0161701 0.0308969 -0.0568398 -0.329933)
(-0.00177938 0.00179884 0.0107739 0.027313 -0.0377199 -0.328246)
(-0.000765701 0.000442546 0.00533786 0.0261958 -0.0403315 -0.32062)
(-0.000545598 0.000227465 0.00747993 0.0254556 -0.0380184 -0.338604)
(-0.00114928 -0.000712576 0.00269381 0.0259725 -0.0453223 -0.363225)
(-0.0012477 0.000430596 -0.00226069 0.0263987 -0.0490042 -0.363744)
(-0.00108966 -0.00132811 -0.00693823 0.0257278 -0.0488584 -0.339826)
(-0.00135321 -0.000384464 -0.00800377 0.0259617 -0.0640992 -0.342934)
(-0.00183516 -0.000917652 -0.0149682 0.0265736 -0.051302 -0.33357)
(-0.00206607 0.000437325 -0.0200792 0.0335173 -0.0680288 -0.320652)
(-0.0035846 0.00406303 -0.0256328 0.0281226 -0.0447923 -0.336676)
(-0.00403768 0.00174737 -0.0422903 0.0229278 -0.0364772 -0.34874)
(-0.00359572 0.0015862 -0.0520925 0.023066 -0.0321086 -0.342902)
(-0.00437546 0.00178833 -0.0632178 0.0174578 -0.026351 -0.346943)
(-0.0037547 -0.000556847 -0.0810309 0.0154925 -0.018885 -0.322326)
(1.40502e-05 -0.00382278 -0.0880761 0.026543 -0.0300096 -0.318151)
(0.00637666 0.000477258 -0.0754876 0.0227925 -0.0202828 -0.285461)
(-0.000302938 0.00188527 -0.0418052 0.0214181 -0.0129125 -0.204502)
(-0.00607227 0.0103092 -0.0580851 0.0177147 -0.00544224 -0.0898609)
(-0.0647834 -0.00407047 0.00857953 0.01195 0.0067495 -0.310987)
(-0.15914 0.00149821 0.175445 0.011237 -0.0145117 -0.0977487)
(-0.0601518 0.00122691 0.109973 0.0270755 -0.017533 -0.246457)
(-0.0176577 0.000186326 0.0307403 0.0200211 -0.00548779 -0.296576)
(0.000785359 -0.0029261 0.0279348 0.0328702 -0.00268431 -0.316091)
(0.00357648 0.000708724 0.0561692 0.0305694 0.0050277 -0.332833)
(-0.00142135 0.000825919 0.0555923 0.0221528 0.0119184 -0.327281)
(-0.002227 0.000435177 0.0481762 0.0209384 0.0125976 -0.30845)
(-0.00229407 -4.14671e-05 0.0469948 0.0254736 0.00644898 -0.34116)
(-0.0039995 -0.000517894 0.0345303 0.0214395 0.00160731 -0.346347)
(-0.00286775 -0.00226254 0.0178 0.0260156 -0.0062373 -0.346884)
(-0.0013295 -0.000573094 0.0164282 0.0483132 -0.0209933 -0.364358)
(-0.00168445 0.000654951 0.0122836 0.0290571 -0.0131453 -0.306579)
(-0.000834 4.49975e-05 0.00572439 0.031856 -0.0163776 -0.335015)
(-0.000624878 -4.85162e-05 0.00813118 0.024495 -0.0159144 -0.311036)
(-0.00111947 -0.000524969 0.00273767 0.0290618 -0.0208965 -0.362647)
(-0.00133695 0.000194394 -0.00145465 0.0295144 -0.0242342 -0.362966)
(-0.00124628 -0.000752862 -0.00762901 0.0266667 -0.0250031 -0.314554)
(-0.00134244 -0.000206875 -0.00808854 0.0418432 -0.0345562 -0.350145)
(-0.00182254 -0.000268919 -0.0153475 0.0295998 -0.0264367 -0.311051)
(-0.00169093 0.000211951 -0.0200982 0.0469176 -0.032412 -0.329807)