/*--------------------------------*- C++ -*----------------------------------*\
| =========                 |                                                 |
| \\      /  F ield         | OpenFOAM: The Open Source CFD Toolbox           |
|  \\    /   O peration     | Version:  2106                                  |
|   \\  /    A nd           | Website:  www.openfoam.com                      |
|    \\/     M anipulation  |                                                 |
\*---------------------------------------------------------------------------*/
FoamFile
{
    version     2.0;
    format      ascii;
    arch        "LSB;label=32;scalar=64";
    class       volSymmTensorField;
    location    "309";
    object      sigma;
}
// * * * * * * * * * * * * * * * * * * * * * * * * * * * * * * * * * * * * * //

dimensions      [1 -1 -2 0 0 0 0];

internalField   nonuniform List<symmTensor> 
9000
(
(2.94969e+08 -1.34486e+07 1.66841e+08 1.32164e+08 7.20862e+07 1.41298e+09)
(7.90575e+08 -1.66738e+06 1.29931e+08 2.70947e+08 1.03734e+08 2.06973e+09)
(7.52364e+08 8.88126e+06 3.85411e+07 2.07793e+08 1.32953e+08 1.84726e+09)
(5.29799e+08 4.94877e+06 9.10965e+06 1.18942e+08 1.31882e+08 1.16199e+09)
(4.25458e+08 1.94921e+06 2.13569e+07 9.24688e+07 9.35558e+07 8.34356e+08)
(3.87739e+08 -1.38734e+06 3.73035e+07 6.77398e+07 1.05823e+08 7.42313e+08)
(4.65839e+08 -7.74849e+06 4.20688e+07 1.07093e+08 8.9013e+07 9.62868e+08)
(7.23649e+08 -857963 4.12229e+07 2.21991e+08 8.915e+07 1.66789e+09)
(6.06876e+08 157551 1.99002e+07 1.49609e+08 1.27454e+08 1.37585e+09)
(7.19839e+08 35648.4 5.66443e+06 2.21778e+08 8.85997e+07 1.67124e+09)
(4.924e+08 8.36889e+06 -2.56841e+07 1.04185e+08 8.30495e+07 1.05017e+09)
(3.28027e+08 529945 6.23596e+06 5.76417e+07 6.79712e+07 5.4665e+08)
(4.73405e+08 -5.65159e+06 2.45317e+07 9.89362e+07 8.55402e+07 9.93583e+08)
(5.87732e+08 -476983 3.62668e+06 1.73303e+08 8.56348e+07 1.29418e+09)
(5.09369e+08 2.91012e+06 -1.23288e+06 1.10202e+08 8.93231e+07 1.10693e+09)
(5.02655e+08 -3.33067e+06 -1.86803e+07 1.06826e+08 8.61016e+07 1.07237e+09)
(6.03226e+08 -2.33209e+06 2.00533e+06 1.75912e+08 8.28859e+07 1.30369e+09)
(6.26487e+08 -2.7322e+06 9.96681e+06 1.59181e+08 9.43659e+07 1.42758e+09)
(6.87091e+08 2.39292e+06 -2.44641e+07 2.10799e+08 6.97919e+07 1.5914e+09)
(4.69325e+08 9.33451e+06 -5.19271e+07 9.64945e+07 7.50731e+07 9.82781e+08)
(3.25039e+08 1.31026e+06 -2.32494e+07 5.60173e+07 7.19538e+07 5.25446e+08)
(4.72911e+08 -9.48328e+06 1.30094e+07 1.0054e+08 1.06617e+08 9.82693e+08)
(7.82067e+08 -1.70915e+06 -1.03493e+07 2.44905e+08 9.53587e+07 1.84384e+09)
(6.12516e+08 4.87733e+06 -2.46313e+07 1.49066e+08 1.31295e+08 1.39502e+09)
(6.49228e+08 -480171 -3.96556e+07 1.61245e+08 1.17134e+08 1.51514e+09)
(5.85297e+08 4.96089e+06 -8.44483e+07 1.35897e+08 1.0769e+08 1.33097e+09)
(4.6191e+08 3.48187e+06 -7.48912e+07 8.77964e+07 1.11334e+08 9.50071e+08)
(5.23852e+08 -5.85644e+06 -5.15858e+07 1.29569e+08 1.10732e+08 1.15457e+09)
(6.27105e+08 -2.19129e+06 -1.00426e+08 2.01568e+08 1.11858e+08 1.47538e+09)
(1.75914e+08 -9.91745e+06 -5.93712e+07 5.81836e+07 7.56937e+07 5.98039e+08)
(2.0693e+08 -2.65942e+07 1.27e+08 1.27278e+08 3.94736e+07 8.88418e+08)
(4.82236e+08 -9.84181e+06 1.01132e+08 2.25042e+08 6.94153e+07 1.09491e+09)
(5.11058e+08 2.19155e+07 6.23977e+07 1.75333e+08 1.36847e+08 1.09293e+09)
(4.08446e+08 1.72734e+07 4.58515e+07 1.15773e+08 1.73384e+08 7.87281e+08)
(3.68426e+08 6.46596e+06 4.08669e+07 1.26687e+08 1.16678e+08 6.40635e+08)
(3.39141e+08 -3.87639e+06 3.25968e+07 9.05924e+07 1.36359e+08 5.87663e+08)
(3.67203e+08 -2.10562e+07 1.54582e+07 1.18114e+08 9.69645e+07 6.50161e+08)
(4.52982e+08 -4.796e+06 1.9712e+07 1.77027e+08 5.24781e+07 8.5589e+08)
(4.27358e+08 138157 2.09531e+07 1.19839e+08 1.50453e+08 8.28401e+08)
(4.67035e+08 1.07541e+06 2.58902e+07 1.89916e+08 4.95066e+07 8.94588e+08)
(3.9921e+08 2.32654e+07 1.69358e+07 1.27977e+08 6.34729e+07 7.42279e+08)
(3.11714e+08 1.82165e+06 7.51856e+06 9.98228e+07 7.43219e+07 4.84258e+08)
(3.88183e+08 -1.48728e+07 -5.35243e+06 1.22892e+08 7.27932e+07 7.06613e+08)
(3.91866e+08 -2.04426e+06 -171058 1.4524e+08 6.44195e+07 6.95492e+08)
(4.18339e+08 4.81e+06 8.62185e+06 1.38761e+08 7.48082e+07 7.93668e+08)
(4.13639e+08 -5.6247e+06 -2.75119e+07 1.36138e+08 6.95267e+07 7.73062e+08)
(3.96574e+08 -6.85944e+06 -1.12432e+07 1.44261e+08 5.78214e+07 6.90754e+08)
(4.60519e+08 -8.31242e+06 4.39466e+06 1.60809e+08 6.80369e+07 8.93337e+08)
(4.5321e+08 7.64845e+06 -5.5931e+06 1.88639e+08 9.15932e+06 8.6315e+08)
(3.85438e+08 2.55219e+07 -1.48951e+07 1.22937e+08 4.88991e+07 7.05328e+08)
(3.05456e+08 4.2437e+06 -2.98432e+07 9.38443e+07 8.47489e+07 4.63949e+08)
(3.70645e+08 -2.67801e+07 -3.39776e+07 1.0116e+08 1.24034e+08 6.68373e+08)
(4.82875e+08 -6.46312e+06 -2.88017e+07 1.89826e+08 5.60223e+07 9.39431e+08)
(4.35081e+08 9.65906e+06 -1.49837e+07 1.20699e+08 1.57529e+08 8.57732e+08)
(4.64001e+08 -1.70431e+06 -3.17514e+07 1.44835e+08 1.15607e+08 9.45516e+08)
(4.53693e+08 1.34369e+07 -6.18016e+07 1.47388e+08 1.04993e+08 9.05216e+08)
(4.01274e+08 1.00089e+07 -6.45664e+07 1.23837e+08 1.33314e+08 7.4387e+08)
(4.15144e+08 -1.09206e+07 -7.19562e+07 1.49029e+08 1.3514e+08 7.95601e+08)
(4.38867e+08 51133.1 -8.74287e+07 2.06648e+08 1.21552e+08 8.82482e+08)
(1.42034e+08 -7.56291e+06 -5.8544e+07 6.88586e+07 1.02799e+08 4.37055e+08)
(1.36618e+08 -2.42911e+07 9.30265e+07 1.34809e+08 -1.64097e+07 4.38375e+08)
(2.95535e+08 -1.22156e+07 7.69907e+07 2.18814e+08 4.59352e+07 4.564e+08)
(3.43488e+08 1.40215e+07 7.54963e+07 1.75099e+08 8.13107e+07 5.38277e+08)
(3.18987e+08 1.37181e+07 6.83073e+07 1.29041e+08 1.03604e+08 4.96983e+08)
(3.15332e+08 5.29059e+06 5.19931e+07 1.51612e+08 5.2023e+07 4.66119e+08)
(2.89327e+08 -2.7989e+06 2.9816e+07 1.13995e+08 6.11917e+07 4.27421e+08)
(2.81259e+08 -1.49745e+07 -1.89586e+06 1.28351e+08 3.56013e+07 3.76425e+08)
(2.76416e+08 -3.89804e+06 6.57385e+06 1.65525e+08 2.06218e+07 3.04448e+08)
(3.00548e+08 -598259 2.09564e+07 1.19597e+08 8.67336e+07 4.19947e+08)
(3.05927e+08 -916647 3.62171e+07 1.86629e+08 1.40707e+07 3.77759e+08)
(2.95029e+08 1.62087e+07 4.25669e+07 1.3784e+08 -9.34081e+06 4.11349e+08)
(2.73323e+08 2.06911e+06 9.16769e+06 1.20289e+08 800151 3.70486e+08)
(2.93115e+08 -8.86806e+06 -2.11369e+07 1.34227e+08 1.08219e+06 4.01807e+08)
(2.66786e+08 -2.27414e+06 -3.7671e+06 1.41055e+08 1.91815e+07 2.96854e+08)
(3.20874e+08 299448 1.0285e+07 1.53786e+08 2.39242e+06 4.7328e+08)
(3.16232e+08 -904461 -2.85719e+07 1.50949e+08 -2.99232e+06 4.60884e+08)
(2.62237e+08 -4.95297e+06 -1.93862e+07 1.37153e+08 1.31659e+07 2.80784e+08)
(3.33079e+08 -8.14816e+06 -1.98968e+06 1.73626e+08 8.43733e+06 4.69369e+08)
(2.97481e+08 5.71641e+06 7.43746e+06 1.87112e+08 -3.11572e+07 3.58339e+08)
(2.85232e+08 1.95129e+07 8.53512e+06 1.326e+08 -2.55058e+07 3.9068e+08)
(2.67866e+08 5.69929e+06 -2.98837e+07 1.13117e+08 1.20181e+07 3.61356e+08)
(2.87342e+08 -1.86058e+07 -6.14574e+07 1.12503e+08 5.18519e+07 4.04048e+08)
(2.90734e+08 -5.53206e+06 -4.15461e+07 1.72685e+08 2.40376e+07 3.34685e+08)
(3.08817e+08 3.66834e+06 -1.27418e+07 1.20354e+08 9.041e+07 4.54845e+08)
(3.2248e+08 -3.41197e+06 -2.99371e+07 1.48968e+08 4.96728e+07 4.92876e+08)
(3.29958e+08 1.10844e+07 -4.90159e+07 1.53369e+08 3.09179e+07 5.06963e+08)
(3.32904e+08 1.2292e+07 -5.62382e+07 1.50582e+08 5.76852e+07 5.18305e+08)
(3.31513e+08 -2.02747e+06 -7.72362e+07 1.72222e+08 7.59927e+07 5.15413e+08)
(3.31212e+08 253116 -8.37381e+07 2.30481e+08 8.77779e+07 5.24294e+08)
(1.10874e+08 -4.731e+06 -6.2585e+07 7.71356e+07 5.32966e+07 2.83705e+08)
(7.31759e+07 -1.52423e+07 6.86634e+07 1.16938e+08 -5.10411e+07 6.62531e+07)
(1.76627e+08 -8.61448e+06 5.53826e+07 1.70332e+08 3.23766e+07 8.85725e+07)
(2.01406e+08 1.2259e+06 7.40383e+07 1.34182e+08 3.16525e+07 1.12137e+08)
(2.19892e+08 4.49642e+06 7.70167e+07 1.15883e+08 2.44867e+07 1.98176e+08)
(2.25291e+08 2.16558e+06 5.93386e+07 1.33747e+08 -1.95467e+07 2.10939e+08)
(2.14246e+08 -235680 3.00801e+07 1.17483e+08 -1.93412e+07 1.99967e+08)
(1.90497e+08 -3.21378e+06 -5.22159e+06 1.15315e+08 -2.26631e+07 1.09501e+08)
(1.49333e+08 -926797 985212 1.16582e+08 261105 -4.84855e+07)
(1.81618e+08 -1.30972e+06 2.00067e+07 9.26192e+07 2.19395e+07 6.8176e+07)
(1.60887e+08 -3.28685e+06 4.03494e+07 1.19539e+08 -1.58133e+07 -1.75287e+07)
(1.95665e+08 3.65536e+06 5.08615e+07 1.27874e+08 -6.43836e+07 1.129e+08)
(2.16436e+08 1.57311e+06 1.04607e+07 1.33934e+08 -7.03583e+07 1.9171e+08)
(2.01332e+08 155713 -2.31514e+07 1.26962e+08 -5.70606e+07 1.25151e+08)
(1.69515e+08 -1.72769e+06 -6.44401e+06 1.10236e+08 -2.22708e+07 2.03009e+07)
(2.05803e+08 -3.95526e+06 5.77062e+06 1.26559e+08 -5.97994e+07 1.37935e+08)
(2.01319e+08 3.93817e+06 -2.30583e+07 1.24228e+08 -6.47492e+07 1.30702e+08)
(1.59068e+08 -1.1549e+06 -2.23039e+07 1.03154e+08 -2.67033e+07 -3.29206e+06)
(2.01388e+08 -5.34251e+06 -6.20601e+06 1.31681e+08 -4.25859e+07 9.21423e+07)
(1.55477e+08 1.61628e+06 1.37707e+07 1.22759e+08 -5.77154e+07 -3.26227e+07)
(1.88871e+08 7.30703e+06 1.66174e+07 1.24048e+08 -8.05067e+07 1.02233e+08)
(2.1137e+08 5.15633e+06 -2.81422e+07 1.25824e+08 -6.21472e+07 1.89654e+08)
(1.93378e+08 -3.99612e+06 -6.88718e+07 1.0255e+08 -2.12595e+07 1.263e+08)
(1.52829e+08 -2.449e+06 -4.87226e+07 1.15538e+08 2.62399e+06 -4.70596e+07)
(1.87004e+08 -3.44218e+06 -1.9082e+07 9.29766e+07 2.03974e+07 9.68236e+07)
(1.91366e+08 -4.36629e+06 -3.14088e+07 1.18882e+08 -8.20072e+06 1.06194e+08)
(2.16993e+08 6.12733e+06 -4.2075e+07 1.37648e+08 -2.94316e+07 1.61865e+08)
(2.55969e+08 1.12107e+07 -4.4573e+07 1.59932e+08 -1.67786e+07 2.73637e+08)
(2.43297e+08 7.25406e+06 -7.02115e+07 1.66178e+08 1.37307e+07 2.5211e+08)
(2.5138e+08 707618 -8.42261e+07 2.1765e+08 4.8479e+07 2.90591e+08)
(7.53686e+07 -2.73946e+06 -6.57044e+07 7.48514e+07 -3.55088e+06 1.04009e+08)
(2.95296e+07 -6.07062e+06 5.3913e+07 9.23362e+07 -5.48072e+07 -1.76346e+08)
(9.373e+07 -3.033e+06 4.91528e+07 1.04329e+08 1.81936e+07 -1.27294e+08)
(1.04259e+08 -7.1367e+06 6.44953e+07 9.02033e+07 9.54419e+06 -1.56935e+08)
(1.37188e+08 -3.98452e+06 7.5643e+07 9.68428e+07 -1.94569e+07 -4.62349e+07)
(1.50254e+08 -1.46986e+06 6.11457e+07 1.18235e+08 -5.78023e+07 -7.44517e+06)
(1.42953e+08 1.79573e+06 3.23639e+07 1.12654e+08 -6.07261e+07 -1.64988e+07)
(1.19268e+08 5.22135e+06 724495 9.73735e+07 -5.06165e+07 -9.32199e+07)
(7.52493e+07 2.36371e+06 1.34701e+06 7.19301e+07 -9.98338e+06 -2.34434e+08)
(9.42644e+07 -1.10097e+06 1.96011e+07 6.51596e+07 -1.02e+07 -1.78858e+08)
(8.12447e+07 -5.6373e+06 3.97251e+07 7.42961e+07 -2.56975e+07 -2.22454e+08)
(1.28866e+08 -5.57734e+06 4.71549e+07 1.17447e+08 -8.55904e+07 -8.55242e+07)
(1.4342e+08 722519 1.12365e+07 1.23166e+08 -1.02805e+08 -2.55566e+07)
(1.39981e+08 5.47093e+06 -1.74888e+07 1.19863e+08 -8.30998e+07 -5.79128e+07)
(1.06422e+08 -661091 -7.47918e+06 8.35481e+07 -4.7581e+07 -1.47243e+08)
(1.3425e+08 -5.28761e+06 -177551 1.13465e+08 -8.48039e+07 -7.63828e+07)
(1.30209e+08 5.96617e+06 -1.55809e+07 1.11679e+08 -8.93185e+07 -8.07106e+07)
(9.35069e+07 2.29007e+06 -2.11246e+07 7.40555e+07 -5.06359e+07 -1.74823e+08)
(1.00252e+08 -2.09741e+06 -7.57689e+06 8.21031e+07 -6.30994e+07 -1.76074e+08)
(7.87348e+07 -2.34603e+06 1.43203e+07 7.93133e+07 -6.2309e+07 -2.31621e+08)
(1.24192e+08 -2.13601e+06 1.35403e+07 1.1517e+08 -1.01437e+08 -9.03695e+07)
(1.3717e+08 4.25598e+06 -2.67089e+07 1.14736e+08 -9.86469e+07 -2.88788e+07)
(1.14846e+08 5.98429e+06 -6.39989e+07 8.79454e+07 -5.76278e+07 -1.0112e+08)
(7.13979e+07 628628 -5.13815e+07 6.46864e+07 -9.70778e+06 -2.47654e+08)
(9.44555e+07 -6.59401e+06 -2.87247e+07 6.44615e+07 -1.51501e+07 -1.64855e+08)
(9.61838e+07 -4.95245e+06 -3.47416e+07 8.42321e+07 -3.22909e+07 -1.63239e+08)
(1.39239e+08 1.03262e+06 -3.93304e+07 1.19876e+08 -5.42638e+07 -6.97547e+07)
(1.77118e+08 6.85569e+06 -3.77455e+07 1.46951e+08 -5.42453e+07 3.82704e+07)
(1.74013e+08 1.1187e+07 -5.94353e+07 1.52587e+08 -1.89578e+07 5.25692e+07)
(2.03172e+08 2.22064e+06 -8.47126e+07 2.03267e+08 2.12747e+07 1.56633e+08)
(4.46817e+07 -391269 -6.51626e+07 6.79501e+07 -3.78198e+07 -5.36714e+07)
(9.10366e+06 646405 4.86202e+07 7.21195e+07 -4.36512e+07 -2.77817e+08)
(7.45101e+07 2.35435e+06 4.24207e+07 8.37657e+07 3.09371e+06 -1.71199e+08)
(5.73866e+07 -9.81784e+06 5.24523e+07 5.99896e+07 2.37462e+06 -2.73809e+08)
(8.70137e+07 -9.20752e+06 6.83338e+07 7.99221e+07 -3.47475e+07 -1.91356e+08)
(1.0319e+08 -3.64774e+06 5.90213e+07 1.07768e+08 -6.66791e+07 -1.48667e+08)
(9.61086e+07 2.21225e+06 3.53289e+07 1.04177e+08 -6.87638e+07 -1.58825e+08)
(8.01248e+07 8.17563e+06 9.64425e+06 8.19327e+07 -5.78675e+07 -2.00006e+08)
(4.4847e+07 4.94072e+06 5.42879e+06 4.7231e+07 -1.69202e+07 -3.01172e+08)
(4.8085e+07 -708248 1.98841e+07 4.6295e+07 -1.90681e+07 -3.01294e+08)
(5.18764e+07 -7.18592e+06 3.58466e+07 5.16033e+07 -3.04183e+07 -2.88375e+08)
(7.60975e+07 -9.18916e+06 3.90759e+07 9.01805e+07 -8.55936e+07 -2.24915e+08)
(1.08789e+08 -254696 1.13057e+07 1.24731e+08 -1.0398e+08 -1.41222e+08)
(9.04143e+07 6.40662e+06 -1.02717e+07 9.42352e+07 -8.8141e+07 -1.87016e+08)
(7.50211e+07 714217 -7.16203e+06 6.95973e+07 -6.00658e+07 -2.26533e+08)
(8.05452e+07 -4.08462e+06 -4.68238e+06 8.92025e+07 -8.62884e+07 -2.2324e+08)
(7.711e+07 5.3293e+06 -8.87829e+06 8.76774e+07 -9.05215e+07 -2.26429e+08)
(6.24731e+07 3.93512e+06 -1.69843e+07 5.93657e+07 -6.21778e+07 -2.53784e+08)
(6.84368e+07 -141827 -7.15915e+06 6.99776e+07 -6.55735e+07 -2.60243e+08)
(5.25654e+07 -4.70556e+06 1.06185e+07 5.79629e+07 -6.26546e+07 -2.89472e+08)
(7.28328e+07 -5.92892e+06 6.06975e+06 8.89907e+07 -1.01143e+08 -2.26936e+08)
(1.00839e+08 3.68955e+06 -2.50188e+07 1.16459e+08 -1.0201e+08 -1.49715e+08)
(6.7915e+07 9.52457e+06 -5.54581e+07 7.48631e+07 -6.49521e+07 -2.33291e+08)
(3.61301e+07 2.73537e+06 -5.10148e+07 3.64526e+07 -1.88381e+07 -3.22312e+08)
(4.32788e+07 -5.99067e+06 -3.70561e+07 4.36934e+07 -2.49009e+07 -3.02174e+08)
(4.57868e+07 -5.11885e+06 -3.91818e+07 5.75602e+07 -3.48042e+07 -2.97956e+08)
(7.91563e+07 -1.84443e+06 -4.24275e+07 8.63641e+07 -5.78379e+07 -2.27442e+08)
(1.26378e+08 2.12587e+06 -3.64972e+07 1.32267e+08 -5.9705e+07 -1.11247e+08)
(1.36638e+08 1.11624e+07 -5.09759e+07 1.39849e+08 -2.99602e+07 -5.40866e+07)
(1.84673e+08 5.68946e+06 -8.18914e+07 1.98325e+08 4.47787e+06 1.00506e+08)
(2.62648e+07 5.00008e+06 -5.93486e+07 5.9028e+07 -5.34997e+07 -1.52021e+08)
(9.39382e+06 4.35699e+06 5.09601e+07 6.3804e+07 -3.44754e+07 -2.70718e+08)
(6.49326e+07 6.08401e+06 4.85348e+07 7.04722e+07 -1.51041e+07 -1.80193e+08)
(4.7536e+07 -8.98265e+06 4.21207e+07 4.81484e+07 -4.83793e+06 -2.84228e+08)
(6.89822e+07 -1.11345e+07 5.88762e+07 7.26799e+07 -3.87135e+07 -2.44667e+08)
(9.18399e+07 -3.45907e+06 5.50236e+07 1.12984e+08 -6.15266e+07 -1.96085e+08)
(7.75132e+07 958164 3.73157e+07 9.8256e+07 -6.25786e+07 -2.17051e+08)
(7.04464e+07 7.23339e+06 1.74982e+07 7.55125e+07 -6.00929e+07 -2.25632e+08)
(4.4138e+07 6.48396e+06 1.12597e+07 4.35284e+07 -2.44457e+07 -2.96045e+08)
(3.71878e+07 -677471 2.06863e+07 4.04427e+07 -2.12499e+07 -3.23976e+08)
(6.0704e+07 -7.33431e+06 3.06911e+07 6.01495e+07 -3.93832e+07 -2.64555e+08)
(6.2433e+07 -8.72035e+06 3.08472e+07 8.19563e+07 -7.81655e+07 -2.61725e+08)
(8.4875e+07 -1.42791e+06 1.08512e+07 1.11157e+08 -9.03407e+07 -2.09579e+08)
(7.81241e+07 4.91447e+06 -4.68564e+06 8.54876e+07 -8.73922e+07 -2.18013e+08)
(6.83897e+07 2.39004e+06 -5.35862e+06 6.93277e+07 -6.59109e+07 -2.43306e+08)
(7.50393e+07 -1.71981e+06 -6.26162e+06 9.38168e+07 -7.84371e+07 -2.46344e+08)
(7.22583e+07 3.29201e+06 -4.86218e+06 9.24019e+07 -8.24036e+07 -2.49272e+08)
(5.71896e+07 3.35516e+06 -1.28626e+07 5.90573e+07 -6.75957e+07 -2.68147e+08)
(6.32723e+07 225421 -6.19571e+06 6.84298e+07 -6.7035e+07 -2.70085e+08)
(6.40302e+07 -5.01817e+06 5.65657e+06 6.77248e+07 -6.87652e+07 -2.59281e+08)
(6.00109e+07 -5.39628e+06 -1.02131e+06 8.13897e+07 -9.33707e+07 -2.6274e+08)
(7.5208e+07 3.19038e+06 -2.35444e+07 1.02237e+08 -8.94275e+07 -2.23208e+08)
(5.22513e+07 9.03331e+06 -4.75143e+07 6.80176e+07 -6.15311e+07 -2.75422e+08)
(3.23579e+07 3.74465e+06 -4.9015e+07 3.09399e+07 -2.79875e+07 -3.21354e+08)
(2.9264e+07 -3.85309e+06 -4.23407e+07 3.55064e+07 -2.66764e+07 -3.34636e+08)
(3.42225e+07 -4.5427e+06 -4.34917e+07 4.53977e+07 -3.32772e+07 -3.24295e+08)
(6.34706e+07 -1.88001e+06 -4.49917e+07 7.53331e+07 -5.31085e+07 -2.65979e+08)
(1.0115e+08 -634826 -4.05191e+07 1.15014e+08 -5.13222e+07 -1.78914e+08)
(1.29075e+08 1.08132e+07 -4.54067e+07 1.34485e+08 -3.50872e+07 -8.2222e+07)
(1.90161e+08 1.10517e+07 -7.31425e+07 2.03454e+08 -7.16017e+06 9.63394e+07)
(2.31581e+07 1.49078e+07 -4.67139e+07 5.50905e+07 -6.23009e+07 -1.91249e+08)
(2.1458e+07 5.19134e+06 5.918e+07 7.04471e+07 -3.41855e+07 -2.06117e+08)
(7.459e+07 5.49001e+06 5.32857e+07 7.99546e+07 -3.3433e+07 -1.46244e+08)
(5.9651e+07 -7.13481e+06 3.40087e+07 5.50159e+07 -1.67313e+07 -2.42253e+08)
(7.50782e+07 -1.02876e+07 4.89137e+07 8.02181e+07 -3.9382e+07 -2.37418e+08)
(8.66685e+07 -2.65626e+06 5.34713e+07 1.08644e+08 -4.86529e+07 -2.14999e+08)
(7.95444e+07 -1.13422e+06 3.7628e+07 9.93859e+07 -5.47823e+07 -2.16059e+08)
(8.08451e+07 4.75322e+06 2.26287e+07 8.32106e+07 -6.33521e+07 -2.04059e+08)
(5.9832e+07 6.89098e+06 1.74432e+07 5.59389e+07 -3.24594e+07 -2.56822e+08)
(4.82394e+07 -543354 2.13192e+07 4.77588e+07 -2.49876e+07 -2.90747e+08)
(6.51469e+07 -6.28819e+06 2.61351e+07 6.62924e+07 -4.39302e+07 -2.52609e+08)
(7.97884e+07 -6.98092e+06 2.45485e+07 9.87682e+07 -7.17274e+07 -2.25971e+08)
(8.5524e+07 -2.67871e+06 9.46479e+06 1.07547e+08 -7.88285e+07 -2.09855e+08)
(9.47979e+07 3.0538e+06 -1.32254e+06 1.02229e+08 -8.86832e+07 -1.85374e+08)
(7.68411e+07 3.79889e+06 -2.40256e+06 7.95881e+07 -6.85785e+07 -2.25522e+08)
(8.43485e+07 361544 -5.40225e+06 1.03184e+08 -6.87453e+07 -2.25991e+08)
(8.20406e+07 1.30521e+06 -3.13052e+06 1.01759e+08 -7.25033e+07 -2.29187e+08)
(6.70108e+07 2.0533e+06 -1.02414e+07 6.93757e+07 -7.03678e+07 -2.46846e+08)
(6.77733e+07 144705 -5.77091e+06 7.13125e+07 -6.61811e+07 -2.54718e+08)
(7.01523e+07 -4.2181e+06 1.15583e+06 7.49268e+07 -7.08936e+07 -2.44168e+08)
(7.78931e+07 -3.76546e+06 -5.60064e+06 9.84797e+07 -8.65231e+07 -2.27053e+08)
(7.52744e+07 2.52467e+06 -2.23691e+07 9.76318e+07 -7.84302e+07 -2.24811e+08)
(5.84367e+07 7.12631e+06 -4.16182e+07 7.0708e+07 -5.85943e+07 -2.597e+08)
(4.64113e+07 3.94417e+06 -4.6396e+07 4.21401e+07 -3.72088e+07 -2.83231e+08)
(3.95839e+07 -1.91838e+06 -4.49486e+07 4.13562e+07 -3.0128e+07 -3.04991e+08)
(4.70034e+07 -3.50552e+06 -4.6839e+07 4.93412e+07 -3.6314e+07 -2.89774e+08)
(8.27879e+07 -2.14174e+06 -4.54668e+07 9.10342e+07 -5.13852e+07 -2.21036e+08)
(1.13785e+08 -2.19852e+06 -4.29067e+07 1.22516e+08 -4.82769e+07 -1.53805e+08)
(1.41865e+08 1.14114e+07 -3.96719e+07 1.41634e+08 -4.0906e+07 -6.49086e+07)
(2.13581e+08 1.49386e+07 -5.64948e+07 2.16287e+08 -1.64859e+07 1.21414e+08)
(3.55089e+07 2.49474e+07 -2.42832e+07 6.41372e+07 -6.91484e+07 -1.91437e+08)
(3.84507e+07 4.15055e+06 7.01283e+07 9.1473e+07 -3.9356e+07 -1.2636e+08)
(9.03073e+07 3.90789e+06 5.66395e+07 9.99668e+07 -4.88127e+07 -1.03883e+08)
(8.03944e+07 -5.11191e+06 2.78399e+07 7.61865e+07 -2.94709e+07 -1.88969e+08)
(1.01708e+08 -6.66314e+06 3.89627e+07 1.07456e+08 -3.83195e+07 -1.84776e+08)
(9.93339e+07 -2.79566e+06 5.11045e+07 1.12103e+08 -3.99071e+07 -1.84844e+08)
(9.31372e+07 -2.63024e+06 3.64707e+07 1.08602e+08 -4.89489e+07 -1.85837e+08)
(1.077e+08 2.72533e+06 2.48829e+07 1.12236e+08 -6.65645e+07 -1.52856e+08)
(8.22384e+07 6.20745e+06 2.28868e+07 7.81255e+07 -3.85545e+07 -2.07786e+08)
(6.90505e+07 -213926 2.20401e+07 6.51469e+07 -3.06206e+07 -2.38034e+08)
(8.00491e+07 -4.54583e+06 2.28313e+07 8.17437e+07 -4.5426e+07 -2.18071e+08)
(1.01058e+08 -5.40608e+06 1.99217e+07 1.19124e+08 -6.34108e+07 -1.80423e+08)
(9.78264e+07 -3.30583e+06 7.29275e+06 1.13543e+08 -7.12486e+07 -1.81825e+08)
(1.12987e+08 1.72557e+06 592885 1.24758e+08 -8.49163e+07 -1.54366e+08)
(9.18432e+07 3.97412e+06 802825 9.55838e+07 -6.86219e+07 -1.94381e+08)
(9.31399e+07 1.50452e+06 -3.35398e+06 1.04839e+08 -5.9361e+07 -1.98706e+08)
(9.12648e+07 -21408.6 -2.67764e+06 1.03518e+08 -6.28995e+07 -2.02067e+08)
(8.36649e+07 973681 -8.64941e+06 8.59842e+07 -7.1218e+07 -2.11067e+08)
(9.52317e+07 197378 -5.51214e+06 9.7559e+07 -6.79029e+07 -1.92111e+08)
(8.56464e+07 -2.79727e+06 -2.03375e+06 9.07118e+07 -7.00943e+07 -2.09143e+08)
(9.94271e+07 -2.68582e+06 -8.69252e+06 1.18836e+08 -7.78243e+07 -1.8218e+08)
(8.79184e+07 1.53552e+06 -2.194e+07 1.02656e+08 -7.23596e+07 -1.95271e+08)
(7.54411e+07 5.29401e+06 -3.76125e+07 8.25918e+07 -5.82995e+07 -2.19988e+08)
(6.8095e+07 3.71852e+06 -4.37381e+07 6.32604e+07 -4.48022e+07 -2.32996e+08)
(6.11148e+07 -713891 -4.5928e+07 5.87109e+07 -3.5853e+07 -2.52348e+08)
(6.93731e+07 -2.31963e+06 -4.89413e+07 6.69194e+07 -4.25972e+07 -2.36662e+08)
(1.05953e+08 -2.98508e+06 -4.81241e+07 1.11672e+08 -5.07876e+07 -1.672e+08)
(1.25222e+08 -2.58315e+06 -4.95095e+07 1.27635e+08 -4.5576e+07 -1.32655e+08)
(1.70692e+08 9.25572e+06 -3.0132e+07 1.68141e+08 -4.67354e+07 -1.94304e+07)
(2.50662e+08 1.10588e+07 -3.39094e+07 2.42079e+08 -2.64216e+07 1.64705e+08)
(5.98731e+07 2.33334e+07 8.82415e+06 9.16509e+07 -7.27604e+07 -1.69006e+08)
(5.68502e+07 3.72066e+06 7.98002e+07 1.22444e+08 -4.32056e+07 -5.06712e+07)
(1.05717e+08 3.12918e+06 6.00494e+07 1.23937e+08 -5.7504e+07 -6.88088e+07)
(1.03639e+08 -2.62922e+06 2.26011e+07 1.05071e+08 -3.66804e+07 -1.39764e+08)
(1.26591e+08 -2.11476e+06 3.44165e+07 1.32428e+08 -3.3359e+07 -1.34123e+08)
(1.17774e+08 -3.23473e+06 4.77912e+07 1.21746e+08 -3.66455e+07 -1.3934e+08)
(1.10849e+08 -2.54877e+06 3.47781e+07 1.23191e+08 -4.3941e+07 -1.4814e+08)
(1.291e+08 1.81237e+06 2.63671e+07 1.41259e+08 -6.1606e+07 -1.18079e+08)
(1.05524e+08 4.52587e+06 2.70188e+07 1.03903e+08 -4.03567e+07 -1.60046e+08)
(9.13441e+07 -138463 2.28392e+07 8.77384e+07 -3.52654e+07 -1.87371e+08)
(9.84402e+07 -2.9951e+06 2.06551e+07 9.98955e+07 -4.51008e+07 -1.7617e+08)
(1.15394e+08 -4.05259e+06 1.65644e+07 1.2693e+08 -5.34742e+07 -1.43482e+08)
(1.13974e+08 -2.88066e+06 5.33591e+06 1.25676e+08 -6.51966e+07 -1.46612e+08)
(1.31457e+08 905770 1.67811e+06 1.47024e+08 -7.51952e+07 -1.21431e+08)
(1.08315e+08 2.638e+06 3.17741e+06 1.13348e+08 -6.60875e+07 -1.60963e+08)
(1.08283e+08 1.39475e+06 -1.23377e+06 1.11494e+08 -5.76909e+07 -1.56941e+08)
(1.06877e+08 -291559 -2.71498e+06 1.10427e+08 -6.09725e+07 -1.59999e+08)
(1.01799e+08 888952 -7.33369e+06 1.04963e+08 -6.99371e+07 -1.73214e+08)
(1.18098e+08 189359 -5.31157e+06 1.22946e+08 -6.59373e+07 -1.4365e+08)
(1.04111e+08 -1.75717e+06 -4.31365e+06 1.08428e+08 -6.752e+07 -1.67359e+08)
(1.13874e+08 -1.88909e+06 -1.1036e+07 1.26678e+08 -6.75539e+07 -1.46129e+08)
(1.04533e+08 804940 -2.20231e+07 1.14773e+08 -6.8673e+07 -1.59215e+08)
(9.51107e+07 3.96264e+06 -3.48708e+07 1.00407e+08 -5.81906e+07 -1.78141e+08)
(9.13988e+07 3.35628e+06 -4.12606e+07 8.87031e+07 -4.87517e+07 -1.83334e+08)
(8.47638e+07 52066.6 -4.6039e+07 8.24397e+07 -4.04756e+07 -1.9998e+08)
(9.36682e+07 -1.54695e+06 -5.01171e+07 9.33155e+07 -4.62885e+07 -1.84858e+08)
(1.21235e+08 -2.49086e+06 -5.25119e+07 1.24167e+08 -4.84269e+07 -1.30819e+08)
(1.44009e+08 -893906 -5.25754e+07 1.4213e+08 -4.48851e+07 -9.54974e+07)
(1.92405e+08 4.26989e+06 -2.60576e+07 1.94185e+08 -4.55925e+07 1.3794e+07)
(2.70414e+08 3.33227e+06 -2.85903e+07 2.5851e+08 -2.92075e+07 1.79467e+08)
(7.66712e+07 9.18053e+06 2.86265e+07 1.17808e+08 -6.5189e+07 -1.62342e+08)
(7.5388e+07 6.6965e+06 8.66199e+07 1.59455e+08 -4.32508e+07 2.30784e+07)
(1.18292e+08 3.3296e+06 6.39766e+07 1.47337e+08 -5.81997e+07 -4.20434e+07)
(1.3115e+08 1.47587e+06 1.75685e+07 1.39797e+08 -3.75187e+07 -8.60825e+07)
(1.41792e+08 -398461 3.44551e+07 1.42978e+08 -2.64802e+07 -9.74371e+07)
(1.34935e+08 -3.3332e+06 4.42233e+07 1.35645e+08 -3.61292e+07 -9.95377e+07)
(1.27897e+08 -1.20036e+06 3.37765e+07 1.39417e+08 -3.79826e+07 -1.14417e+08)
(1.46953e+08 1.54232e+06 2.76882e+07 1.65428e+08 -4.90536e+07 -8.80688e+07)
(1.27869e+08 2.49885e+06 2.94447e+07 1.28993e+08 -3.78796e+07 -1.14338e+08)
(1.10798e+08 -341212 2.33287e+07 1.10884e+08 -3.62858e+07 -1.47477e+08)
(1.15914e+08 -2.57764e+06 1.90761e+07 1.1868e+08 -4.33983e+07 -1.38606e+08)
(1.33011e+08 -2.99779e+06 1.41793e+07 1.3537e+08 -5.11647e+07 -9.72572e+07)
(1.29635e+08 -1.49445e+06 4.43951e+06 1.39673e+08 -5.92496e+07 -1.13828e+08)
(1.47078e+08 503464 2.35412e+06 1.63522e+08 -6.32012e+07 -9.01488e+07)
(1.23185e+08 1.01817e+06 4.22967e+06 1.30435e+08 -6.11384e+07 -1.31825e+08)
(1.21587e+08 665278 254104 1.23538e+08 -5.80962e+07 -1.27253e+08)
(1.20628e+08 18178.1 -2.59674e+06 1.22795e+08 -6.1153e+07 -1.29659e+08)
(1.18263e+08 1.20595e+06 -6.00165e+06 1.23628e+08 -6.6276e+07 -1.40111e+08)
(1.28786e+08 71877.5 -5.23527e+06 1.33615e+08 -5.94849e+07 -1.18666e+08)
(1.21515e+08 -1.6995e+06 -6.12592e+06 1.26224e+08 -6.42535e+07 -1.296e+08)
(1.31592e+08 -1.13547e+06 -1.25805e+07 1.35553e+08 -6.47637e+07 -1.00807e+08)
(1.20476e+08 1.12763e+06 -2.19804e+07 1.29958e+08 -6.45694e+07 -1.27349e+08)
(1.12974e+08 3.12109e+06 -3.27572e+07 1.19995e+08 -5.54685e+07 -1.43488e+08)
(1.1431e+08 2.90689e+06 -3.89668e+07 1.14685e+08 -4.84446e+07 -1.36297e+08)
(1.05819e+08 630590 -4.5544e+07 1.07164e+08 -4.1216e+07 -1.56806e+08)
(1.22163e+08 -1.73597e+06 -5.08168e+07 1.28222e+08 -4.51091e+07 -1.29218e+08)
(1.3997e+08 -1.10155e+06 -5.4283e+07 1.42057e+08 -4.77047e+07 -9.07012e+07)
(1.67729e+08 -126232 -5.13469e+07 1.67696e+08 -4.38269e+07 -4.88206e+07)
(2.10593e+08 -282262 -2.56623e+07 2.16858e+08 -3.87007e+07 4.65364e+07)
(2.89321e+08 -4.31519e+06 -2.1923e+07 2.82603e+08 -3.02839e+07 2.10119e+08)
(8.13089e+07 -5.60225e+06 3.38039e+07 1.33119e+08 -4.71363e+07 -1.6003e+08)
(7.96586e+07 8.95627e+06 9.93477e+07 1.7741e+08 -3.56553e+07 5.69273e+07)
(1.26148e+08 3.47077e+06 6.81628e+07 1.66894e+08 -5.19556e+07 -2.13153e+07)
(1.4114e+08 3.73211e+06 2.13437e+07 1.5494e+08 -3.09345e+07 -6.66712e+07)
(1.55798e+08 -1.81993e+06 3.26882e+07 1.52445e+08 -2.57392e+07 -5.93905e+07)
(1.48364e+08 -2.63586e+06 4.10568e+07 1.51657e+08 -3.43397e+07 -7.44868e+07)
(1.41701e+08 356310 3.41273e+07 1.54244e+08 -2.98106e+07 -8.95787e+07)
(1.60643e+08 1.18833e+06 2.92966e+07 1.81681e+08 -3.33283e+07 -6.17583e+07)
(1.51268e+08 1.09306e+06 3.02931e+07 1.57319e+08 -3.43889e+07 -6.81549e+07)
(1.25706e+08 -359045 2.33212e+07 1.3126e+08 -3.25491e+07 -1.19636e+08)
(1.30029e+08 -3.07418e+06 1.7464e+07 1.36288e+08 -3.91568e+07 -1.11039e+08)
(1.47129e+08 -2.23353e+06 1.25332e+07 1.47809e+08 -5.25789e+07 -6.67435e+07)
(1.4228e+08 123840 4.67354e+06 1.53764e+08 -5.19889e+07 -8.99488e+07)
(1.50645e+08 384964 2.8868e+06 1.65973e+08 -5.01616e+07 -8.14547e+07)
(1.3509e+08 132956 4.52494e+06 1.46013e+08 -5.31924e+07 -1.10231e+08)
(1.30755e+08 48423.1 1.10009e+06 1.37891e+08 -5.45266e+07 -1.13302e+08)
(1.30203e+08 254051 -2.26014e+06 1.37503e+08 -5.73904e+07 -1.14899e+08)
(1.31917e+08 777403 -4.82719e+06 1.41228e+08 -5.9548e+07 -1.14568e+08)
(1.40678e+08 -106903 -5.23338e+06 1.4358e+08 -5.61631e+07 -8.9438e+07)
(1.35773e+08 -1.76909e+06 -7.8304e+06 1.43698e+08 -5.91203e+07 -1.01921e+08)
(1.46275e+08 -440035 -1.34277e+07 1.49322e+08 -6.50887e+07 -7.03408e+07)
(1.33673e+08 2.19267e+06 -2.11584e+07 1.45918e+08 -5.78268e+07 -1.0407e+08)
(1.27179e+08 2.32503e+06 -3.08693e+07 1.38042e+08 -4.88105e+07 -1.17949e+08)
(1.39095e+08 2.22467e+06 -3.69204e+07 1.45268e+08 -4.61725e+07 -8.84631e+07)
(1.22074e+08 1.39009e+06 -4.48288e+07 1.28664e+08 -3.72322e+07 -1.25056e+08)
(1.33354e+08 -1.86665e+06 -5.29499e+07 1.4477e+08 -3.55822e+07 -1.10154e+08)
(1.62165e+08 -1.16347e+06 -5.38579e+07 1.68957e+08 -4.39681e+07 -4.84609e+07)
(1.74166e+08 89831.4 -5.3756e+07 1.79851e+08 -3.63598e+07 -3.86819e+07)
(2.22465e+08 -2.37632e+06 -2.84439e+07 2.32823e+08 -3.02352e+07 7.38372e+07)
(2.88525e+08 -7.08932e+06 -3.43044e+07 2.93816e+08 -2.54058e+07 2.12356e+08)
(8.02559e+07 -1.26569e+07 2.46423e+07 1.37637e+08 -2.47861e+07 -1.47576e+08)
(8.30955e+07 6.79649e+06 1.0896e+08 1.89405e+08 -2.66335e+07 9.06715e+07)
(1.31182e+08 2.73428e+06 7.14811e+07 1.81374e+08 -4.10109e+07 -5.26901e+06)
(1.49949e+08 2.12424e+06 2.29753e+07 1.6651e+08 -2.36485e+07 -4.58954e+07)
(1.64285e+08 -3.60994e+06 2.92036e+07 1.65042e+08 -2.61617e+07 -4.20431e+07)
(1.58623e+08 -1.3081e+06 3.86219e+07 1.67952e+08 -2.72661e+07 -6.16166e+07)
(1.51449e+08 1.30056e+06 3.53647e+07 1.65718e+08 -1.89258e+07 -7.35888e+07)
(1.63546e+08 667094 3.09165e+07 1.83085e+08 -1.64006e+07 -5.38801e+07)
(1.51775e+08 297961 3.11011e+07 1.65e+08 -2.45934e+07 -7.31216e+07)
(1.35646e+08 -381679 2.33481e+07 1.46703e+08 -2.42006e+07 -1.02187e+08)
(1.39918e+08 -3.53682e+06 1.5495e+07 1.51163e+08 -3.12574e+07 -9.41941e+07)
(1.55646e+08 -1.57359e+06 1.14441e+07 1.64261e+08 -5.02881e+07 -5.84355e+07)
(1.52004e+08 1.13034e+06 5.78883e+06 1.67826e+08 -4.10516e+07 -7.47519e+07)
(1.56597e+08 367825 3.30193e+06 1.71644e+08 -3.93186e+07 -6.8154e+07)
(1.4503e+08 34079.4 4.73456e+06 1.60354e+08 -4.12116e+07 -9.34119e+07)
(1.36648e+08 -292781 1.58534e+06 1.50338e+08 -4.48796e+07 -1.07616e+08)
(1.36375e+08 289232 -1.90779e+06 1.50274e+08 -4.75708e+07 -1.08512e+08)
(1.4325e+08 -268202 -4.35668e+06 1.57766e+08 -4.84817e+07 -9.51786e+07)
(1.48647e+08 -250473 -5.31273e+06 1.55926e+08 -5.30453e+07 -7.56006e+07)
(1.46999e+08 -1.31707e+06 -9.29088e+06 1.60891e+08 -4.96027e+07 -8.39007e+07)
(1.56863e+08 93574.4 -1.36956e+07 1.68559e+08 -6.05575e+07 -5.84857e+07)
(1.44224e+08 2.98914e+06 -1.93999e+07 1.61631e+08 -4.64658e+07 -8.79569e+07)
(1.37149e+08 1.68939e+06 -2.95371e+07 1.52252e+08 -3.81865e+07 -1.00717e+08)
(1.42227e+08 1.55358e+06 -3.59691e+07 1.56471e+08 -3.63846e+07 -8.96473e+07)
(1.33584e+08 1.6686e+06 -4.36797e+07 1.44985e+08 -2.90214e+07 -1.03769e+08)
(1.44996e+08 -1.17475e+06 -5.42964e+07 1.58064e+08 -2.41556e+07 -8.51096e+07)
(1.72663e+08 -2.46385e+06 -5.55878e+07 1.85935e+08 -3.45169e+07 -3.33049e+07)
(1.82044e+08 1.00769e+06 -5.35907e+07 1.91507e+08 -2.58647e+07 -2.44348e+07)
(2.24085e+08 -231708 -3.31369e+07 2.37622e+08 -1.98549e+07 7.868e+07)
(2.87473e+08 -184758 -4.18751e+07 3.02763e+08 -1.56942e+07 2.20154e+08)