/*--------------------------------*- C++ -*----------------------------------*\
| =========                 |                                                 |
| \\      /  F ield         | OpenFOAM: The Open Source CFD Toolbox           |
|  \\    /   O peration     | Version:  2106                                  |
|   \\  /    A nd           | Website:  www.openfoam.com                      |
|    \\/     M anipulation  |                                                 |
\*---------------------------------------------------------------------------*/
FoamFile
{
    version     2.0;
    format      ascii;
    arch        "LSB;label=32;scalar=64";
    class       volVectorField;
    location    "664";
    object      D;
}
// * * * * * * * * * * * * * * * * * * * * * * * * * * * * * * * * * * * * * //

dimensions      [0 1 0 0 0 0 0];

internalField   nonuniform List<vector> 
9000
(
(0.00361499 0.000699033 0.00549517)
(0.000956477 0.0027228 0.00535737)
(-0.000374146 0.00188037 0.00446567)
(-0.000781455 0.000340309 0.00183011)
(4.74227e-05 -0.000633107 -0.000165269)
(0.00117214 -0.000432986 0.000134989)
(0.00153536 0.000757352 0.00236178)
(0.000805509 0.00176946 0.00437272)
(-0.000335999 0.0019797 0.00445163)
(-0.000914224 0.00118955 0.00283434)
(-0.000631453 0.000260259 0.00105284)
(2.5136e-05 -0.000172948 0.000383084)
(0.000373928 -9.47554e-05 0.000824937)
(0.00035517 0.000240038 0.00144603)
(0.000271425 0.000772757 0.00195355)
(0.000228863 0.00112594 0.00244973)
(4.72959e-05 0.00120229 0.00293202)
(-0.000470079 0.00108994 0.00288231)
(-0.000853418 0.000322276 0.00165901)
(-0.000479392 -0.000334587 0.000330486)
(0.000406447 -0.000264983 0.000403189)
(0.000881504 0.000458469 0.00214797)
(0.000395526 0.00109031 0.00401042)
(-0.000570502 0.0011576 0.00422594)
(-0.00100016 0.000868387 0.00296628)
(-0.000613112 0.00057531 0.00190683)
(3.93133e-05 0.000884743 0.00197038)
(0.000178208 0.00144757 0.00290123)
(-0.000556516 0.0012597 0.00286175)
(-0.0012193 -0.00107023 0.000641163)
(0.00299777 -0.00107374 0.00391731)
(0.000877737 0.000749476 0.00329016)
(-0.000101955 0.000168469 0.00284209)
(-0.000437138 -0.000446878 0.00122163)
(0.000163892 -0.000704025 -4.80196e-05)
(0.000977193 -0.000606913 0.000140495)
(0.00121808 -0.000191745 0.0015033)
(0.000645078 0.000101405 0.00278328)
(-0.000232434 0.000284898 0.00281988)
(-0.000663407 6.95982e-05 0.00180228)
(-0.00043619 -0.000217831 0.000679571)
(6.27313e-05 -0.000407458 0.000280907)
(0.000303548 -0.000490422 0.000596837)
(0.000251952 -0.000376248 0.000989557)
(0.000171619 -2.06725e-05 0.00124748)
(0.000155236 0.000154769 0.00153105)
(3.37821e-05 5.5868e-05 0.00187)
(-0.000360597 -3.70515e-05 0.0018652)
(-0.000665101 -0.000379984 0.00112238)
(-0.000394986 -0.000571005 0.000273047)
(0.000272098 -0.000536683 0.00030956)
(0.000630145 -0.000452576 0.00143794)
(0.000247797 -0.000497725 0.00265017)
(-0.000511309 -0.000522318 0.00280282)
(-0.000850078 -0.000351203 0.00194951)
(-0.000548414 -0.000246292 0.0012361)
(-2.08877e-05 7.35695e-05 0.00125245)
(0.0001389 0.000339463 0.00185874)
(-0.000387692 0.000179676 0.00185959)
(-0.000826043 -0.00133294 0.000330021)
(0.00229822 -0.00180715 0.00229217)
(0.000819199 -0.000142628 0.00192616)
(0.000157118 -0.000567274 0.00163606)
(-7.42462e-05 -0.000777146 0.000632082)
(0.000288548 -0.000732208 -0.000144327)
(0.000766949 -0.000684954 -1.95626e-05)
(0.000874249 -0.000602527 0.000807762)
(0.000475355 -0.000611652 0.00159615)
(-0.000112377 -0.000462749 0.00164443)
(-0.000388443 -0.000424316 0.00101583)
(-0.000222836 -0.000428717 0.00032973)
(9.76923e-05 -0.000516728 9.89306e-05)
(0.000221593 -0.000657767 0.00030147)
(0.000148802 -0.000640572 0.000543751)
(7.51565e-05 -0.000384343 0.000699145)
(7.02075e-05 -0.000290865 0.000861936)
(1.07677e-05 -0.000447381 0.00106404)
(-0.000248945 -0.000529652 0.0010751)
(-0.000466792 -0.000676826 0.000606943)
(-0.000303079 -0.000673837 7.86488e-05)
(0.000117128 -0.000674201 9.89592e-05)
(0.000332941 -0.000861175 0.000780703)
(6.65036e-05 -0.00115984 0.00148722)
(-0.000435294 -0.00121965 0.00157228)
(-0.000656162 -0.000884754 0.00107294)
(-0.000445658 -0.000603791 0.000646515)
(-5.50343e-05 -0.000296495 0.000709857)
(0.000102782 -0.000166441 0.00115708)
(-0.000279108 -0.000290988 0.00116179)
(-0.000477701 -0.00132074 -0.0003096)
(0.00157711 -0.00180813 0.000863106)
(0.000758894 -0.000402416 0.000900634)
(0.00038411 -0.000702402 0.00070625)
(0.00025752 -0.000788764 0.000137604)
(0.000400109 -0.00068173 -0.000273875)
(0.000566237 -0.00065606 -0.000194955)
(0.000549513 -0.000664248 0.000254122)
(0.000315254 -0.000735686 0.000678739)
(4.33151e-06 -0.000625664 0.000739375)
(-0.000125414 -0.000510969 0.000395795)
(-2.16326e-05 -0.000448492 3.52378e-05)
(0.000127772 -0.000515979 -7.59216e-05)
(0.000142099 -0.000654774 3.84032e-05)
(5.46113e-05 -0.000663355 0.000169719)
(-1.12695e-05 -0.00046541 0.000262816)
(-1.11303e-05 -0.000399779 0.000341131)
(-1.40767e-05 -0.000543691 0.000433204)
(-0.000145378 -0.000613266 0.000447806)
(-0.000280227 -0.000690667 0.000174789)
(-0.000218027 -0.000654313 -0.000116623)
(-3.3727e-05 -0.000684591 -0.000112383)
(4.37858e-05 -0.000921934 0.000229551)
(-0.000111077 -0.00122266 0.000550579)
(-0.000357985 -0.00127323 0.000576021)
(-0.00045894 -0.000952448 0.000353861)
(-0.000331709 -0.000641236 0.000161591)
(-7.13191e-05 -0.000376706 0.000282562)
(7.09012e-05 -0.000306437 0.00063966)
(-0.000198952 -0.000392553 0.000638246)
(-0.000156925 -0.00106545 -0.000906116)
(0.000894469 -0.00137635 -0.000237579)
(0.000686073 -0.000317395 0.000136176)
(0.000564667 -0.000525423 3.52829e-05)
(0.000522028 -0.000620452 -0.000222419)
(0.000482982 -0.000569326 -0.00037587)
(0.000393563 -0.000549666 -0.000332704)
(0.000277027 -0.000526922 -0.00015159)
(0.000180062 -0.000546566 1.41629e-05)
(0.000103261 -0.000471067 7.65563e-05)
(9.64258e-05 -0.000375688 -5.62404e-05)
(0.000145059 -0.000354573 -0.000182951)
(0.000151531 -0.000437271 -0.000210551)
(7.52654e-05 -0.000548775 -0.000155963)
(-2.391e-05 -0.000550058 -0.00010381)
(-8.22777e-05 -0.000387231 -5.83395e-05)
(-7.77855e-05 -0.000321287 -4.11648e-05)
(-3.45373e-05 -0.000419145 -2.62973e-05)
(-5.7804e-05 -0.000473075 -1.0329e-05)
(-0.000124175 -0.000549342 -0.000138624)
(-0.000150197 -0.000554332 -0.000264875)
(-0.000162056 -0.000600651 -0.000280241)
(-0.000197478 -0.000776577 -0.00018203)
(-0.000257481 -0.000961388 -0.0001277)
(-0.000291218 -0.000978035 -0.000144715)
(-0.000289572 -0.000751081 -0.000176438)
(-0.000228115 -0.000494038 -0.000193612)
(-7.71172e-05 -0.000291133 -2.90096e-05)
(4.44272e-05 -0.000250623 0.000273371)
(-0.000130696 -0.00029892 0.000265119)
(0.000141882 -0.000660341 -0.00133244)
(0.000306074 -0.000757724 -0.000973877)
(0.000602241 -8.3872e-05 -0.000388461)
(0.000690387 -0.000238449 -0.000397087)
(0.000703742 -0.00038581 -0.000445646)
(0.000531187 -0.000428511 -0.000436055)
(0.000258554 -0.000406024 -0.000419644)
(7.23998e-05 -0.000304876 -0.000414112)
(7.76327e-05 -0.000238216 -0.000416359)
(0.000177062 -0.000188563 -0.000360729)
(0.000262043 -0.000156878 -0.000348464)
(0.000267759 -0.000211411 -0.000321501)
(0.00016847 -0.000319706 -0.000295155)
(2.50726e-05 -0.000397921 -0.000275381)
(-8.35383e-05 -0.000384111 -0.000275869)
(-0.000135171 -0.000241605 -0.00026746)
(-0.000125009 -0.000163558 -0.000291554)
(-4.75457e-05 -0.000209393 -0.000323215)
(9.1644e-06 -0.000251807 -0.000304581)
(-8.50817e-06 -0.000355059 -0.000333352)
(-0.000102708 -0.000418178 -0.000355796)
(-0.000257836 -0.000466338 -0.00039053)
(-0.000372487 -0.000540334 -0.000449696)
(-0.000360708 -0.000580471 -0.000556266)
(-0.000240998 -0.000557454 -0.00059653)
(-0.000163852 -0.00043857 -0.000515714)
(-0.000147497 -0.000270074 -0.000416699)
(-7.84605e-05 -0.00013659 -0.000226246)
(2.30586e-05 -0.00011806 4.16861e-05)
(-6.99988e-05 -0.000132545 2.86816e-05)
(0.000409249 -0.000211796 -0.00156167)
(-0.000146578 -0.000125171 -0.00137673)
(0.000515352 0.000178623 -0.000705274)
(0.000760736 3.73861e-05 -0.000636271)
(0.000805149 -0.00016181 -0.000555529)
(0.000547067 -0.000289993 -0.000458148)
(0.000162382 -0.000260555 -0.000459652)
(-6.42553e-05 -7.77856e-05 -0.000555173)
(8.52491e-06 6.87425e-05 -0.000655178)
(0.000224835 0.000101077 -0.000610711)
(0.000370609 5.94619e-05 -0.000510808)
(0.000347064 -6.79716e-05 -0.000391629)
(0.000178933 -0.000196842 -0.000332871)
(-8.94672e-06 -0.000248543 -0.00032937)
(-0.000124462 -0.000221115 -0.000363446)
(-0.000169754 -9.27055e-05 -0.000382472)
(-0.000152907 -9.30429e-07 -0.000431385)
(-5.30901e-05 -4.89152e-07 -0.000485736)
(5.48441e-05 -3.55434e-05 -0.000464355)
(6.68032e-05 -0.000171291 -0.000432652)
(-7.36566e-05 -0.000283318 -0.000395873)
(-0.000319589 -0.000320902 -0.000444984)
(-0.000481388 -0.000295137 -0.000592417)
(-0.000421699 -0.00020974 -0.000779294)
(-0.000207996 -0.000153909 -0.000827377)
(-8.37091e-05 -0.000124518 -0.000691925)
(-9.43453e-05 -4.82254e-05 -0.000527063)
(-8.00613e-05 2.0181e-05 -0.000326194)
(4.57581e-06 1.65995e-05 -8.21881e-05)
(-1.9629e-05 2.84752e-05 -9.67712e-05)
(0.000627306 0.000189517 -0.00161362)
(-0.000445572 0.000416899 -0.0015103)
(0.000435115 0.000398047 -0.000857154)
(0.000782079 0.000243932 -0.000737249)
(0.000839292 9.91995e-06 -0.000586101)
(0.000537425 -0.000173942 -0.000452122)
(0.000100358 -0.000137677 -0.000463983)
(-0.000142242 0.000106154 -0.00060637)
(-3.11987e-05 0.00031119 -0.000754694)
(0.000250297 0.000332935 -0.000722634)
(0.000430527 0.000231669 -0.000579557)
(0.000389945 4.76759e-05 -0.000412606)
(0.000183624 -9.30525e-05 -0.000334156)
(-2.9695e-05 -0.000128711 -0.000336456)
(-0.000148997 -9.0992e-05 -0.000390475)
(-0.000188083 2.55471e-05 -0.000428664)
(-0.000164522 0.000127582 -0.000489967)
(-5.27795e-05 0.000162836 -0.000550603)
(8.15007e-05 0.000131892 -0.000527168)
(0.00010816 -2.68224e-05 -0.000465116)
(-5.85951e-05 -0.000172322 -0.000399419)
(-0.000351427 -0.000194128 -0.000454143)
(-0.000534999 -9.05226e-05 -0.000640547)
(-0.000448371 8.34562e-05 -0.000854192)
(-0.000189629 0.000160091 -0.000900809)
(-4.25784e-05 0.000128424 -0.000747832)
(-6.69913e-05 0.000127132 -0.000556342)
(-8.51617e-05 0.000141169 -0.000355564)
(-1.42328e-05 0.000114635 -0.000130952)
(1.4794e-05 0.000142362 -0.000143608)
(0.000777978 0.000482904 -0.00153256)
(-0.000597877 0.00081702 -0.00144782)
(0.000368189 0.000542043 -0.000891713)
(0.000764918 0.000364628 -0.000750518)
(0.000823242 0.000115788 -0.000570355)
(0.000509701 -9.12541e-05 -0.000428897)
(6.48611e-05 -5.03024e-05 -0.000445975)
(-0.000174719 0.00022543 -0.000600888)
(-4.71655e-05 0.00046566 -0.000764239)
(0.000259725 0.0004821 -0.000743865)
(0.000453656 0.000343648 -0.000586951)
(0.00040566 0.000126728 -0.000403298)
(0.000183412 -1.98092e-05 -0.00031281)
(-4.06864e-05 -4.79675e-05 -0.000316638)
(-0.000160279 -4.18501e-06 -0.000380067)
(-0.00019332 0.000100312 -0.000429814)
(-0.000163721 0.000207182 -0.000494719)
(-4.84993e-05 0.000265259 -0.000552612)
(9.32063e-05 0.000234989 -0.000528883)
(0.000123818 6.90873e-05 -0.000455444)
(-5.30809e-05 -9.23973e-05 -0.00038095)
(-0.000360452 -0.000101885 -0.000433033)
(-0.000547855 5.11144e-05 -0.000626348)
(-0.000450537 0.00027567 -0.000835079)
(-0.000182064 0.000361557 -0.000876527)
(-3.05495e-05 0.000295369 -0.000727229)
(-6.04778e-05 0.00024173 -0.000535579)
(-9.56073e-05 0.000213637 -0.000341422)
(-3.62312e-05 0.000163365 -0.000135097)
(2.8705e-05 0.000194798 -0.000143231)
(0.00085174 0.000641092 -0.00137222)
(-0.00062906 0.00105977 -0.00125855)
(0.000316895 0.000605863 -0.000852757)
(0.000720963 0.000406354 -0.000715913)
(0.000773918 0.000161251 -0.000533423)
(0.000470755 -4.46695e-05 -0.000398483)
(4.7864e-05 -2.01757e-06 -0.000417901)
(-0.000175136 0.000278911 -0.000566963)
(-4.50124e-05 0.000532612 -0.000723994)
(0.000259977 0.000548681 -0.000713335)
(0.000452678 0.000396254 -0.000559293)
(0.000402905 0.000171005 -0.000377469)
(0.000179259 2.26157e-05 -0.000281659)
(-4.48581e-05 -3.78786e-06 -0.000285793)
(-0.000161635 4.12122e-05 -0.00035069)
(-0.000188874 0.000131386 -0.000405639)
(-0.000154159 0.000237405 -0.000468369)
(-4.18304e-05 0.000309451 -0.000519537)
(9.47369e-05 0.000279904 -0.000498218)
(0.000122227 0.000119874 -0.000423063)
(-5.41161e-05 -4.20055e-05 -0.000350998)
(-0.000354677 -4.73154e-05 -0.000396519)
(-0.000534081 0.000127065 -0.000578188)
(-0.00043711 0.000369696 -0.00076553)
(-0.000181474 0.000456772 -0.000801565)
(-3.75575e-05 0.000376881 -0.00066706)
(-6.90381e-05 0.000297681 -0.000488295)
(-0.000112238 0.000238185 -0.000305321)
(-6.31121e-05 0.000166241 -0.000117703)
(2.08625e-05 0.000189561 -0.000120956)
(0.000852592 0.000666496 -0.00118417)
(-0.000574207 0.00115248 -0.00100184)
(0.000280004 0.000600246 -0.000775228)
(0.000660921 0.000387106 -0.000661264)
(0.000705092 0.000159164 -0.000490786)
(0.000425997 -3.17047e-05 -0.000368736)
(4.25476e-05 9.61412e-06 -0.000389435)
(-0.000154957 0.000275775 -0.000524612)
(-2.97679e-05 0.000524808 -0.00066377)
(0.00025706 0.000545654 -0.000659735)
(0.000439057 0.000399138 -0.000516038)
(0.000389231 0.000186015 -0.000344375)
(0.000172301 4.05466e-05 -0.000249883)
(-4.45783e-05 1.24155e-05 -0.000254071)
(-0.000156423 5.33215e-05 -0.000315198)
(-0.00017815 0.000126803 -0.000371515)
(-0.000138976 0.0002271 -0.000428707)
(-3.36842e-05 0.000306798 -0.000470982)
(9.02992e-05 0.000280672 -0.000453571)
(0.000110591 0.000134925 -0.000381559)
(-5.98489e-05 -1.66113e-05 -0.000316502)
(-0.000341494 -2.53569e-05 -0.000356166)
(-0.000505689 0.000146351 -0.000517742)
(-0.000415178 0.000381398 -0.000677351)
(-0.000184552 0.000465746 -0.000708779)
(-5.50134e-05 0.000387932 -0.000594125)
(-8.74612e-05 0.000303493 -0.000431277)
(-0.000135272 0.000222855 -0.000262713)
(-9.57225e-05 0.000132509 -9.34968e-05)
(-8.40276e-06 0.000138139 -9.42858e-05)
(0.000789944 0.000582621 -0.00100981)
(-0.000469483 0.00111584 -0.000725032)
(0.000253912 0.000542331 -0.000684083)
(0.000593133 0.000327904 -0.000603473)
(0.000626847 0.000122124 -0.000451128)
(0.000379159 -4.76646e-05 -0.000345247)
(4.38295e-05 -1.00106e-05 -0.000367376)
(-0.000123246 0.000228916 -0.00048644)
(-5.70939e-06 0.000460257 -0.000603718)
(0.000255511 0.000490376 -0.000602318)
(0.000421737 0.000364626 -0.000470303)
(0.000371171 0.000178459 -0.000310632)
(0.000163954 4.22558e-05 -0.00022252)
(-4.18196e-05 1.0359e-05 -0.000226644)
(-0.000147743 4.18469e-05 -0.000281423)
(-0.000164104 9.76552e-05 -0.000337715)
(-0.000120619 0.000188681 -0.000387785)
(-2.43918e-05 0.000270878 -0.000419446)
(8.30156e-05 0.000250714 -0.00040574)
(9.4021e-05 0.000124646 -0.000339498)
(-6.89155e-05 -1.07826e-05 -0.000282414)
(-0.000326738 -2.76947e-05 -0.000319282)
(-0.00047215 0.000122866 -0.000459468)
(-0.000390075 0.000331685 -0.000591659)
(-0.000188622 0.000412113 -0.00061882)
(-7.64862e-05 0.000349199 -0.000524613)
(-0.000111699 0.000271142 -0.000376519)
(-0.000164507 0.000178565 -0.000223256)
(-0.000134177 7.18798e-05 -7.12672e-05)
(-5.34315e-05 5.49091e-05 -7.39435e-05)
(0.000683846 0.000424058 -0.000876315)
(-0.000345297 0.000976009 -0.000463812)
(0.00023372 0.000449801 -0.000595491)
(0.000522773 0.000245455 -0.000551485)
(0.00054624 6.04106e-05 -0.000419824)
(0.00033273 -8.74195e-05 -0.000331939)
(4.82594e-05 -5.46392e-05 -0.000356119)
(-8.66551e-05 0.000150922 -0.00045966)
(2.37326e-05 0.000357793 -0.0005556)
(0.000258287 0.000399603 -0.000552861)
(0.000406887 0.000304294 -0.000430365)
(0.000353933 0.000154463 -0.000281046)
(0.000155798 3.47678e-05 -0.000201541)
(-3.81588e-05 -2.40832e-06 -0.000205661)
(-0.000138051 1.51107e-05 -0.000253605)
(-0.000148897 5.39512e-05 -0.000309794)
(-0.000100923 0.000133546 -0.000352342)
(-1.41839e-05 0.000213672 -0.000372339)
(7.50648e-05 0.000201752 -0.000361487)
(7.57221e-05 9.80426e-05 -0.000301962)
(-8.0325e-05 -1.96156e-05 -0.000252436)
(-0.00031442 -4.63801e-05 -0.000289681)
(-0.000440396 7.0591e-05 -0.00041164)
(-0.000365701 0.000241676 -0.000520521)
(-0.00019165 0.000317459 -0.000543247)
(-9.76289e-05 0.00027855 -0.000466325)
(-0.000139027 0.000213891 -0.000331247)
(-0.000199593 0.000114584 -0.000192197)
(-0.000178485 -8.03729e-06 -5.63833e-05)
(-0.000107175 -4.83931e-05 -6.58916e-05)
(0.000564643 0.000226661 -0.00079636)
(-0.000227155 0.000760862 -0.000243975)
(0.000214109 0.000337954 -0.000519125)
(0.000452447 0.00015165 -0.000510358)
(0.000467655 -1.82186e-05 -0.000400683)
(0.00028844 -0.000145723 -0.00033158)
(5.36981e-05 -0.000118152 -0.000358324)
(-4.95229e-05 5.21384e-05 -0.000448136)
(5.61722e-05 0.000232425 -0.000524925)
(0.000266918 0.000287273 -0.000517892)
(0.000398309 0.000227772 -0.00040123)
(0.000341236 0.00011921 -0.000259184)
(0.000149287 2.26154e-05 -0.000187464)
(-3.48456e-05 -2.04917e-05 -0.00019201)
(-0.000128963 -2.10757e-05 -0.000234013)
(-0.000133859 2.65774e-06 -0.000290042)
(-8.12837e-05 6.98911e-05 -0.000325367)
(-3.42953e-06 0.0001441 -0.000334016)
(6.78555e-05 0.000143063 -0.000324851)
(5.75292e-05 6.20511e-05 -0.000271904)
(-9.3444e-05 -3.89135e-05 -0.000229489)
(-0.00030692 -7.54402e-05 -0.000269201)
(-0.000414964 1.04133e-06 -0.000378147)
(-0.000344625 0.000128085 -0.000469255)
(-0.000192409 0.000198985 -0.000487664)
(-0.000115651 0.000189783 -0.000422814)
(-0.000167718 0.000142976 -0.000298497)
(-0.000240575 3.83821e-05 -0.000172525)
(-0.000228936 -0.000102105 -5.26857e-05)
(-0.000161533 -0.000163863 -7.36433e-05)
(0.000464838 2.02159e-05 -0.000770733)
(-0.000135243 0.000498213 -8.28386e-05)
(0.000190246 0.000218767 -0.000460211)
(0.000382962 5.46146e-05 -0.000482955)
(0.000393416 -0.000107397 -0.000396581)
(0.000247507 -0.000216926 -0.000345919)
(5.89374e-05 -0.00019469 -0.000375444)
(-1.45158e-05 -5.84704e-05 -0.000453854)
(8.99386e-05 9.54421e-05 -0.000514121)
(0.000281919 0.000164271 -0.000500648)
(0.000398026 0.000142875 -0.000385767)
(0.000335418 7.76198e-05 -0.00024755)
(0.000145574 8.31583e-06 -0.000180467)
(-3.27303e-05 -4.02768e-05 -0.000185714)
(-0.000121418 -6.28689e-05 -0.000224049)
(-0.000119661 -5.22221e-05 -0.000279102)
(-6.27357e-05 2.7043e-06 -0.000307849)
(7.45566e-06 6.8516e-05 -0.000307146)
(6.22182e-05 8.10097e-05 -0.000297953)
(4.03886e-05 2.17707e-05 -0.000250989)
(-0.000107895 -6.44709e-05 -0.000215773)
(-0.000305404 -0.000110572 -0.000258905)
(-0.000398409 -7.72913e-05 -0.000360331)
(-0.000328511 2.99784e-06 -0.000439737)
(-0.000190376 6.94119e-05 -0.000454189)
(-0.00012892 9.30713e-05 -0.000395504)
(-0.000196725 6.63763e-05 -0.000279062)
(-0.000287849 -4.37538e-05 -0.000165766)
(-0.000285981 -0.000206087 -6.31108e-05)
(-0.000210183 -0.000287014 -9.94293e-05)
(0.000412477 -0.000174478 -0.000792563)
(-8.27962e-05 0.00021493 9.97303e-06)
(0.000158593 0.000101202 -0.000420911)
(0.000314173 -3.99054e-05 -0.000470458)
(0.000324546 -0.000200612 -0.000409239)
(0.000210588 -0.000295316 -0.000375516)
(6.34674e-05 -0.000278355 -0.000408048)
(1.70713e-05 -0.000173423 -0.000477094)
(0.000123821 -4.42357e-05 -0.000523917)
(0.000303153 3.93293e-05 -0.000502349)
(0.000406807 5.62261e-05 -0.000385304)
(0.000337585 3.43874e-05 -0.000247353)
(0.000145412 -6.41014e-06 -0.000180697)
(-3.21288e-05 -6.04638e-05 -0.000186258)
(-0.00011594 -0.000107051 -0.000224559)
(-0.000106582 -0.00010851 -0.000277073)
(-4.59299e-05 -6.51139e-05 -0.000299991)
(1.81463e-05 -7.82748e-06 -0.000293125)
(5.85426e-05 1.93869e-05 -0.00028171)
(2.47758e-05 -1.89803e-05 -0.000240031)
(-0.00012343 -9.20102e-05 -0.000212395)
(-0.000310249 -0.0001479 -0.000259406)
(-0.00039178 -0.000158185 -0.000358259)
(-0.000318248 -0.000124767 -0.000432109)
(-0.000185496 -6.19015e-05 -0.000443025)
(-0.000136781 -3.98553e-06 -0.000384554)
(-0.000225585 -9.73721e-06 -0.000273017)
(-0.0003416 -0.000126815 -0.000172242)
(-0.000350678 -0.000315853 -8.9283e-05)
(-0.000251686 -0.000414956 -0.000144232)
(0.00041256 -0.000344903 -0.000851547)
(-7.52033e-05 -6.37779e-05 3.20101e-05)
(0.000117452 -7.93583e-06 -0.000401143)
(0.000245866 -0.000127419 -0.000472487)
(0.000261177 -0.000290733 -0.000438388)
(0.00017788 -0.000374821 -0.000420229)
(6.72992e-05 -0.000362493 -0.000455928)
(4.47638e-05 -0.000285612 -0.000517289)
(0.000156966 -0.000178437 -0.000553883)
(0.000329995 -7.96886e-05 -0.000522792)
(0.000424439 -2.60159e-05 -0.000399874)
(0.000347856 -5.92515e-06 -0.000258608)
(0.000149012 -2.01404e-05 -0.000188057)
(-3.29623e-05 -8.07622e-05 -0.000193592)
(-0.000112573 -0.000150404 -0.000235558)
(-9.47515e-05 -0.000164577 -0.000283981)
(-3.10661e-05 -0.00013148 -0.000301767)
(2.84022e-05 -8.03414e-05 -0.00029187)
(5.67997e-05 -3.93083e-05 -0.000276298)
(1.09598e-05 -5.69963e-05 -0.000239162)
(-0.000139701 -0.000117289 -0.000219334)
(-0.000321164 -0.000183558 -0.000270462)
(-0.000395003 -0.000236424 -0.000371364)
(-0.000313979 -0.000247896 -0.000445534)
(-0.000178031 -0.000187337 -0.000453242)
(-0.00013937 -9.52585e-05 -0.000389196)
(-0.000254128 -8.01349e-05 -0.000279799)
(-0.000401737 -0.000206336 -0.00019169)
(-0.000424317 -0.000426531 -0.000131355)
(-0.000289989 -0.000543968 -0.000207932)
(0.000453814 -0.000483361 -0.000937078)
(-0.000110422 -0.000314942 -1.27013e-05)
(6.72209e-05 -0.000102922 -0.000399062)
(0.000178347 -0.000203717 -0.000487245)
(0.000203129 -0.000370393 -0.000481475)
(0.000149254 -0.000447626 -0.000479032)
(7.07771e-05 -0.000438711 -0.000517834)
(6.85837e-05 -0.000386256 -0.000572972)
(0.000188739 -0.000298137 -0.000602467)
(0.000361322 -0.000184459 -0.000560376)
(0.000449754 -9.74628e-05 -0.000428199)
(0.000365383 -3.87781e-05 -0.000280202)
(0.000156069 -3.13376e-05 -0.000202292)
(-3.47311e-05 -9.98399e-05 -0.000208114)
(-0.000110891 -0.0001895 -0.000256195)
(-8.42161e-05 -0.000218152 -0.000299756)
(-1.79971e-05 -0.000193929 -0.000312986)
(3.80053e-05 -0.000144929 -0.000302058)
(5.66046e-05 -9.22606e-05 -0.000281264)
(-9.03782e-07 -8.90208e-05 -0.000247844)
(-0.000156195 -0.000136212 -0.000235468)
(-0.00033722 -0.000213702 -0.000290943)
(-0.000406993 -0.000306416 -0.000398552)
(-0.000315187 -0.000358874 -0.000478377)
(-0.000168598 -0.000299275 -0.000482965)
(-0.000137619 -0.000174997 -0.000407953)
(-0.000282413 -0.000140079 -0.000298393)
(-0.000467675 -0.000277309 -0.0002233)
(-0.000507491 -0.000531708 -0.000188024)
(-0.000333056 -0.000667445 -0.000288931)
(0.000512133 -0.000582164 -0.00103895)
(-0.000180242 -0.000518082 -0.000114455)
(1.03919e-05 -0.000178013 -0.000411184)
(0.000112606 -0.000263715 -0.000511721)
(0.000150487 -0.000431917 -0.000534159)
(0.000124512 -0.000503252 -0.00054874)
(7.4398e-05 -0.00049611 -0.000590754)
(8.89856e-05 -0.000463524 -0.000640621)
(0.000218587 -0.000391847 -0.000666497)
(0.000395359 -0.000265 -0.000611602)
(0.000480444 -0.000150841 -0.000467452)
(0.000388168 -5.95782e-05 -0.000309883)
(0.000165943 -3.76816e-05 -0.000223247)
(-3.6323e-05 -0.000114039 -0.000229684)
(-0.000110054 -0.000220092 -0.000284987)
(-7.48295e-05 -0.00026504 -0.00032375)
(-6.50264e-06 -0.000248315 -0.000332852)
(4.66804e-05 -0.000197215 -0.000321594)
(5.73049e-05 -0.00013516 -0.000295291)
(-1.08308e-05 -0.000111193 -0.000264722)
(-0.000172287 -0.000144874 -0.000258624)
(-0.000356813 -0.000234166 -0.000319242)
(-0.000425518 -0.000360799 -0.000437791)
(-0.000320838 -0.000448198 -0.000527824)
(-0.000158362 -0.000388481 -0.000528985)
(-0.000133408 -0.000236643 -0.000438756)
(-0.000310913 -0.000184348 -0.000327573)
(-0.000537907 -0.000333616 -0.000265141)
(-0.000599725 -0.000622427 -0.000256206)
(-0.000390285 -0.000774373 -0.000383384)
(0.000548664 -0.000629577 -0.00114566)
(-0.000271417 -0.000655146 -0.000258281)
(-4.85993e-05 -0.000226516 -0.000431996)
(5.02175e-05 -0.000300013 -0.000541474)
(0.00010369 -0.000465876 -0.000590514)
(0.00010373 -0.000529449 -0.000623316)
(7.87523e-05 -0.000521038 -0.000668875)
(0.000106832 -0.00050318 -0.000714337)
(0.000246036 -0.000444323 -0.000739827)
(0.000429328 -0.000308866 -0.00066999)
(0.000512694 -0.000177465 -0.000512696)
(0.000413015 -6.34382e-05 -0.000344447)
(0.000177749 -3.48498e-05 -0.00025049)
(-3.61084e-05 -0.000117812 -0.000257289)
(-0.000108545 -0.000235738 -0.000319442)
(-6.61313e-05 -0.000297958 -0.000353577)
(3.45241e-06 -0.000287649 -0.000358869)
(5.38562e-05 -0.000231164 -0.00034729)
(5.79299e-05 -0.000161982 -0.000315698)
(-1.91558e-05 -0.000118699 -0.000287315)
(-0.000187188 -0.000139359 -0.000285874)
(-0.000377301 -0.000238981 -0.000353003)
(-0.000446929 -0.00038939 -0.000485008)
(-0.00032945 -0.00050283 -0.00058861)
(-0.000149344 -0.000442917 -0.000585681)
(-0.000129698 -0.000271588 -0.00047851)
(-0.000340395 -0.000205916 -0.000364771)
(-0.000610368 -0.000368511 -0.000314014)
(-0.000698614 -0.000687617 -0.000331146)
(-0.000468751 -0.000848996 -0.000484898)
(0.000528921 -0.000609751 -0.00124219)
(-0.000365804 -0.00071085 -0.000423863)
(-0.000103486 -0.000240457 -0.000452944)
(-6.76143e-06 -0.000301774 -0.000569328)
(6.33509e-05 -0.000460002 -0.000642435)
(8.74239e-05 -0.000512033 -0.000692943)
(8.47174e-05 -0.00049752 -0.000742063)
(0.000123564 -0.000487422 -0.000783993)
(0.000270492 -0.000436576 -0.000810102)
(0.000459061 -0.000301372 -0.000724377)
(0.000540772 -0.000167217 -0.00055588)
(0.000435438 -4.44997e-05 -0.000379292)
(0.000190475 -1.60471e-05 -0.000282142)
(-3.19732e-05 -0.00010335 -0.000288585)
(-0.000103981 -0.000227238 -0.000354871)
(-5.73054e-05 -0.000306401 -0.000383418)
(1.15354e-05 -0.000301957 -0.00038522)
(5.84148e-05 -0.000238637 -0.000373765)
(5.70751e-05 -0.000165535 -0.000337835)
(-2.66391e-05 -0.00010576 -0.000311456)
(-0.000199764 -0.00011495 -0.000313234)
(-0.000394622 -0.000219713 -0.000387776)
(-0.000465972 -0.000379256 -0.000532287)
(-0.000338966 -0.000505864 -0.000650061)
(-0.000144579 -0.000447567 -0.000643182)
(-0.000130834 -0.000268281 -0.000521553)
(-0.000372102 -0.000196944 -0.000404651)
(-0.000682073 -0.000374416 -0.000365044)
(-0.000799033 -0.000713262 -0.000405528)
(-0.000570884 -0.000871208 -0.000582881)
(0.000424953 -0.000503032 -0.00130742)
(-0.00043994 -0.00067429 -0.000585301)
(-0.00014618 -0.00021148 -0.000460953)
(-5.54878e-05 -0.000255053 -0.000582035)
(3.00234e-05 -0.000399437 -0.0006778)
(7.63732e-05 -0.000435834 -0.000742328)
(9.37234e-05 -0.000409262 -0.000793872)
(0.00014108 -0.000397415 -0.000832327)
(0.000291016 -0.000350858 -0.000856638)
(0.000478864 -0.000227606 -0.000756981)
(0.000556771 -0.000109706 -0.000584525)
(0.000449731 3.59955e-06 -0.000407506)
(0.000203201 2.68113e-05 -0.00031325)
(-2.122e-05 -6.07152e-05 -0.00031811)
(-9.32645e-05 -0.000183795 -0.000382634)
(-4.72755e-05 -0.000278577 -0.000402451)
(1.69953e-05 -0.000280185 -0.000401278)
(5.86771e-05 -0.000210591 -0.000391954)
(5.27855e-05 -0.000138223 -0.000354259)
(-3.46076e-05 -6.62726e-05 -0.000330509)
(-0.000208363 -6.64074e-05 -0.000334849)
(-0.000403079 -0.000166839 -0.000415106)
(-0.000475804 -0.000316751 -0.000565864)
(-0.000346843 -0.000440586 -0.00069408)
(-0.000148004 -0.000386108 -0.000685026)
(-0.000143031 -0.000212647 -0.000556279)
(-0.000408164 -0.000151343 -0.000438842)
(-0.000747999 -0.000343298 -0.000410198)
(-0.000892509 -0.00068396 -0.000467314)
(-0.000695038 -0.000817428 -0.000658184)
(0.000218206 -0.000290631 -0.00131099)
(-0.000467438 -0.000541946 -0.000711767)
(-0.000167065 -0.000133704 -0.000437165)
(-9.21471e-05 -0.000148976 -0.00055802)
(4.20674e-06 -0.000268703 -0.000676101)
(7.1128e-05 -0.000288671 -0.000748599)
(0.00010795 -0.000244149 -0.0007995)
(0.000161609 -0.000218694 -0.000831581)
(0.000306078 -0.000175318 -0.000849175)
(0.000481613 -7.68826e-05 -0.000741678)
(0.000550788 2.67178e-06 -0.0005806)
(0.000449274 8.5648e-05 -0.000419039)
(0.000215285 0.000100007 -0.000334709)
(-5.54404e-07 1.87616e-05 -0.000335336)
(-7.28893e-05 -9.6155e-05 -0.000388536)
(-3.49285e-05 -0.000205655 -0.000394331)
(1.87897e-05 -0.000214343 -0.00039116)
(5.26266e-05 -0.000139961 -0.000387793)
(4.23687e-05 -7.32571e-05 -0.000352846)
(-4.50633e-05 4.46423e-06 -0.000334629)
(-0.000210879 1.02084e-05 -0.000342209)
(-0.000395411 -7.34933e-05 -0.000421206)
(-0.000468044 -0.000191942 -0.000564635)
(-0.000349916 -0.0002943 -0.000693774)
(-0.000164451 -0.000245157 -0.000685926)
(-0.000174577 -9.46486e-05 -0.000563539)
(-0.000451638 -6.63148e-05 -0.000456434)
(-0.000801142 -0.00027058 -0.000437818)
(-0.000966775 -0.000586653 -0.000497259)
(-0.000833137 -0.000669913 -0.000679783)
(-0.000101419 3.80544e-05 -0.00121016)
(-0.000422903 -0.000321007 -0.000768998)
(-0.000156086 -8.97498e-06 -0.000356832)
(-0.000111923 1.7808e-05 -0.000466881)
(-1.36637e-05 -6.10816e-05 -0.0006043)
(7.16113e-05 -6.88449e-05 -0.000680364)
(0.000130055 -1.92706e-06 -0.000724745)
(0.000187645 4.94412e-05 -0.000741331)
(0.000313687 8.86037e-05 -0.000747269)
(0.000459322 0.000149639 -0.000643296)
(0.000511949 0.000169558 -0.00052026)
(0.000426696 0.000201588 -0.000400319)
(0.00022636 0.000203449 -0.000333772)
(3.4085e-05 0.000137471 -0.000323936)
(-3.91465e-05 3.83816e-05 -0.000352037)
(-1.93117e-05 -8.72129e-05 -0.000337808)
(1.57316e-05 -0.00010477 -0.000334419)
(3.80308e-05 -2.6284e-05 -0.000341744)
(2.26587e-05 3.01518e-05 -0.000315881)
(-6.04184e-05 0.000106719 -0.000310561)
(-0.00020524 0.000114648 -0.000323776)
(-0.00036352 5.87113e-05 -0.000387428)
(-0.000432958 -5.64693e-06 -0.000500082)
(-0.000344267 -6.49011e-05 -0.000612391)
(-0.00019954 -2.1726e-05 -0.00061038)
(-0.000235452 8.56097e-05 -0.000517223)
(-0.000506189 5.56305e-05 -0.000444348)
(-0.000832609 -0.000158035 -0.000433175)
(-0.00100605 -0.000416879 -0.000466887)
(-0.000971408 -0.000425862 -0.000604983)
(-0.000538874 0.000475171 -0.000948619)
(-0.000287054 -3.38041e-05 -0.000722088)
(-0.000105095 0.000145424 -0.000191707)
(-0.000109729 0.000227967 -0.000270966)
(-2.3284e-05 0.000206004 -0.000418468)
(7.70193e-05 0.000205006 -0.000498763)
(0.000162151 0.000294818 -0.000527594)
(0.000221637 0.0003781 -0.000512245)
(0.000312031 0.000414207 -0.000501864)
(0.000404613 0.000427954 -0.000419255)
(0.00042997 0.000375833 -0.000374537)
(0.00037385 0.000342624 -0.000333984)
(0.000236161 0.000326088 -0.000296659)
(8.74656e-05 0.000285415 -0.000263408)
(1.17436e-05 0.000209074 -0.00024708)
(2.8922e-07 6.39206e-05 -0.000206849)