/*--------------------------------*- C++ -*----------------------------------*\
| =========                 |                                                 |
| \\      /  F ield         | OpenFOAM: The Open Source CFD Toolbox           |
|  \\    /   O peration     | Version:  2106                                  |
|   \\  /    A nd           | Website:  www.openfoam.com                      |
|    \\/     M anipulation  |                                                 |
\*---------------------------------------------------------------------------*/
FoamFile
{
    version     2.0;
    format      ascii;
    arch        "LSB;label=32;scalar=64";
    class       volSymmTensorField;
    location    "664";
    object      epsilon;
}
// * * * * * * * * * * * * * * * * * * * * * * * * * * * * * * * * * * * * * //

dimensions      [0 0 0 0 0 0 0];

internalField   nonuniform List<symmTensor> 
9000
(
(-22.3404 -0.531336 14.8665 -34.5126 -1.99477 111.936)
(-5.9837 0.148012 9.021 -38.6915 5.52227 106.947)
(-2.6069 0.127288 -3.55764 -33.5743 2.65076 90.1558)
(0.632354 0.348581 -7.66593 -15.1866 -0.567551 38.2437)
(2.93039 0.146729 0.672394 -0.964626 -2.27863 -1.66676)
(2.23191 -0.209656 11.8583 -2.97498 -1.84995 4.2922)
(-0.549948 -0.363904 15.3746 -18.4873 0.667513 48.2927)
(-2.80704 -0.143238 7.91111 -32.769 2.48494 88.3304)
(-2.5796 0.170903 -3.55026 -33.1502 3.16747 88.8703)
(-0.443181 0.295778 -9.22465 -21.7241 1.60739 56.4965)
(1.40904 0.221302 -6.18714 -9.05917 -0.152825 21.2776)
(1.50807 0.00785335 0.398956 -4.2964 -1.04275 8.70088)
(0.495051 -0.109055 3.75303 -7.57305 -1.11852 18.5028)
(-0.153754 -0.0617497 3.4588 -11.9397 -0.508736 30.6777)
(-0.189461 -0.0420603 2.64244 -15.2544 0.982831 39.1542)
(-0.336193 -0.115025 2.23911 -18.7084 1.79913 48.3151)
(-1.04841 -0.0641746 0.510712 -22.324 1.60018 58.8074)
(-1.35107 0.0805528 -4.66544 -22.016 1.35863 58.4204)
(-0.0139699 0.171989 -8.59278 -13.6036 -0.426082 34.8691)
(1.8898 0.0962996 -4.77396 -4.27361 -1.63141 8.16146)
(2.04134 -0.206412 4.09841 -4.84189 -1.41985 9.30049)
(-0.0163808 -0.434362 8.90932 -17.5047 -0.300473 44.7962)
(-2.17801 -0.291808 3.92167 -31.1498 0.371468 83.3704)
(-2.09352 0.138762 -5.85732 -32.9091 0.293457 87.8342)
(-0.063914 0.344457 -10.1818 -23.558 0.362992 60.7352)
(1.5592 0.248793 -6.29879 -15.7274 0.139708 38.5183)
(1.18698 0.101395 0.263291 -15.5482 1.20066 38.4613)
(-0.893744 -0.00680223 1.90996 -21.6501 2.50132 57.0108)
(-2.09627 -0.311356 -4.79513 -21.3634 2.15137 57.8893)
(-3.97146 -0.181645 -5.0824 -5.24807 -4.27504 17.3254)
(-17.4275 -1.10276 11.7909 -18.7963 -14.4687 78.7723)
(-4.64959 0.416867 8.22221 -21.4907 2.23618 71.3161)
(-1.97231 1.09498 -0.0153785 -18.3573 -3.22484 60.3658)
(0.39877 1.99766 -3.19519 -8.38091 -5.78591 25.5985)
(2.1215 0.784193 2.18223 -0.743258 -5.90271 -1.41369)
(1.58128 -1.13526 9.30108 -1.88975 -5.46 2.76595)
(-0.498172 -1.94794 11.2368 -10.1991 -3.78342 31.9156)
(-2.17577 -0.880598 5.88406 -17.8583 -3.35103 59.0422)
(-1.96273 0.814728 -2.13097 -18.3184 -1.93302 59.7309)
(-0.305634 1.59464 -5.95313 -12.104 -2.42395 37.8216)
(1.08921 1.17452 -3.71062 -5.16732 -3.07638 13.9564)
(1.10961 0.0676433 0.809423 -2.57835 -3.89462 5.7914)
(0.283831 -0.547849 2.81788 -4.22259 -4.98335 12.7514)
(-0.197893 -0.421568 2.19166 -6.60457 -4.70483 20.9928)
(-0.145074 -0.337743 1.42277 -8.67825 -2.16693 26.3778)
(-0.206755 -0.537551 1.2891 -10.626 -1.19677 32.2566)
(-0.773749 -0.280846 0.280247 -12.3725 -2.58991 39.4109)
(-1.04833 0.502363 -3.28459 -12.147 -3.07515 39.5254)
(-0.0515843 1.04938 -6.12516 -7.49326 -4.96748 23.6645)
(1.4058 0.54365 -3.63403 -2.54437 -5.28594 5.48306)
(1.5377 -0.996123 2.37327 -3.06914 -5.03261 6.30498)
(-0.0364523 -2.02789 5.57874 -9.89732 -5.92341 30.4568)
(-1.71218 -1.28614 1.98835 -16.8761 -7.99475 56.2116)
(-1.64681 0.616923 -4.98563 -17.8294 -8.7204 59.3645)
(-0.0556572 1.497 -8.14986 -13.1486 -6.04941 41.0399)
(1.24379 0.946529 -5.43065 -8.84326 -4.33565 25.6089)
(1.03097 0.0855126 -0.564289 -8.85928 -1.73639 25.8432)
(-0.550206 -0.203267 1.26982 -12.1051 -0.371527 39.0142)
(-1.44741 -0.214022 -2.79077 -11.6301 -1.05721 39.7791)
(-1.7906 0.257147 -2.86841 -1.87885 -11.5029 6.11873)
(-11.3464 -1.41622 8.92452 -5.50787 -18.2457 43.7258)
(-3.21165 0.484246 7.77133 -8.63918 0.0163289 42.3977)
(-1.34017 1.34685 2.78507 -6.53154 -5.33058 34.1962)
(0.197144 2.48127 0.858038 -2.56414 -7.36538 12.6741)
(1.26179 0.954958 3.55996 0.167212 -6.88145 -3.56432)
(0.878552 -1.44382 6.93359 -0.368608 -6.52219 -0.771123)
(-0.437392 -2.45215 7.38084 -3.54377 -5.43802 16.9639)
(-1.47994 -1.13201 4.02083 -6.27818 -5.47526 33.3715)
(-1.2957 1.02837 -0.732063 -6.82921 -4.16098 34.5216)
(-0.165688 2.043 -2.8679 -4.35425 -3.99797 20.9106)
(0.729202 1.48528 -1.37186 -1.72996 -4.08183 6.46644)
(0.666642 0.0721167 1.12549 -0.813911 -4.88618 1.85878)
(0.0766642 -0.698315 1.8709 -1.23264 -6.18771 6.11874)
(-0.219654 -0.53496 1.10829 -2.1533 -6.04772 11.1413)
(-0.117891 -0.423552 0.426036 -3.33553 -3.58982 14.6664)
(-0.0965833 -0.671153 0.342276 -4.15911 -2.69982 18.0812)
(-0.478729 -0.358561 -0.0295709 -4.49669 -4.22197 22.0641)
(-0.71634 0.634986 -2.07599 -4.32161 -4.76235 22.3915)
(-0.0812007 1.33514 -3.88262 -2.33012 -6.35165 12.2522)
(0.87588 0.665565 -2.55607 -0.624805 -6.36425 1.14571)
(0.95403 -1.28735 0.658592 -1.10931 -6.37037 1.80072)
(-0.0759362 -2.56308 2.18697 -3.52018 -8.01347 16.1745)
(-1.15235 -1.61463 -0.0702517 -5.43703 -10.6181 30.6393)
(-1.084 0.781283 -4.04171 -5.63183 -11.4631 32.183)
(-0.0155469 1.92866 -5.88758 -4.50934 -8.36739 22.0021)
(0.901691 1.25384 -4.252 -2.96209 -5.86983 12.8771)
(0.822661 0.138895 -0.977536 -3.37706 -3.02462 14.3315)
(-0.33611 -0.250867 0.781902 -4.84425 -1.88176 24.0263)
(-0.870724 -0.157952 -1.64571 -4.29172 -2.51509 24.536)
(1.00921 0.483034 -1.24129 2.00615 -12.3104 -8.13702)
(-5.31044 -1.5783 6.05684 3.23094 -16.163 13.5466)
(-1.7895 0.330067 7.25531 -1.31075 -0.384977 19.7236)
(-0.752061 1.23855 4.99942 0.313878 -4.49624 13.8085)
(0.0239987 2.25153 4.19719 1.1752 -6.54664 2.0148)
(0.463075 0.828656 4.65174 1.22162 -6.38246 -6.07231)
(0.224106 -1.38708 4.86667 1.01466 -6.09124 -4.34231)
(-0.376475 -2.2993 4.06828 0.567042 -5.02659 4.93378)
(-0.817772 -1.07841 2.40901 0.488145 -4.69869 13.275)
(-0.661001 0.977182 0.486856 -0.0623858 -3.74487 14.6636)
(-0.0389462 1.95114 -0.192121 0.364709 -3.43478 7.39978)
(0.379779 1.37585 0.632359 0.556077 -3.70538 0.224637)
(0.245598 0.0471836 1.37694 0.595923 -4.70444 -1.81157)
(-0.109742 -0.659259 1.0469 0.81744 -5.79322 0.430617)
(-0.230053 -0.505647 0.193871 0.678851 -5.58675 3.03188)
(-0.0986124 -0.392696 -0.401312 -0.0216639 -3.49465 5.18891)
(-0.0042108 -0.613684 -0.473012 -0.228165 -2.64096 6.76341)
(-0.201372 -0.330009 -0.312658 0.211771 -3.7746 8.32035)
(-0.399225 0.606548 -1.04438 0.424329 -4.24431 8.63134)
(-0.108974 1.25403 -1.96378 0.956132 -5.64584 2.86637)
(0.36975 0.577863 -1.66782 0.896281 -5.95203 -2.882)
(0.39272 -1.24765 -0.868289 0.551629 -6.27692 -2.57638)
(-0.116025 -2.39262 -0.781944 0.634479 -7.66924 4.23999)
(-0.602657 -1.47842 -1.87991 1.48843 -9.43202 10.1686)
(-0.521794 0.742944 -3.19986 1.8121 -9.98762 10.3464)
(0.0394143 1.84871 -3.82216 1.00255 -7.64976 6.34246)
(0.581431 1.24759 -3.0707 0.823146 -5.24031 2.45913)
(0.603916 0.168289 -1.1603 0.0402124 -2.78863 5.12559)
(-0.191449 -0.230717 0.417562 -0.63137 -1.91098 12.6196)
(-0.34174 -0.0127209 -0.842495 -0.0594845 -2.38544 12.8018)
(3.61247 0.657526 0.17295 4.95303 -9.56173 -20.6139)
(-0.224389 -1.5893 3.32508 7.87801 -10.8591 -8.82871)
(-0.494703 0.0507494 6.56437 2.38908 0.833009 3.04923)
(-0.246067 0.921247 6.61703 3.47965 -2.02573 -0.324528)
(-0.122528 1.6404 6.61382 3.02216 -4.48879 -5.41275)
(-0.192696 0.544632 5.36451 1.89915 -5.18507 -7.9608)
(-0.308932 -1.12201 3.20654 1.87527 -4.9064 -7.05129)
(-0.320252 -1.78685 1.49841 2.69529 -3.33268 -3.65906)
(-0.260649 -0.849188 1.14358 3.73103 -2.20083 -0.796041)
(-0.125455 0.775899 1.43173 3.27826 -1.56405 0.55901)
(0.0626972 1.54033 1.8866 2.65568 -1.5828 -2.04248)
(0.0826581 1.03903 2.1552 1.7781 -2.53981 -4.22658)
(-0.104691 0.00696616 1.56425 1.47205 -3.825 -4.58361)
(-0.263162 -0.52344 0.417764 1.9264 -4.57404 -3.63027)
(-0.236315 -0.396903 -0.523248 2.09433 -4.20408 -2.66279)
(-0.0808132 -0.293052 -1.04637 1.67854 -2.41574 -1.57491)
(0.0716106 -0.450982 -1.08321 1.77166 -1.49347 -1.29953)
(0.0299723 -0.239349 -0.510302 2.50724 -2.07418 -1.33301)
(-0.134457 0.481887 -0.223347 2.71094 -2.40357 -1.02242)
(-0.13859 0.958002 -0.48815 2.51706 -3.9087 -3.59117)
(-0.0568208 0.393965 -1.04048 1.77101 -4.82484 -5.80623)
(-0.0709209 -1.00709 -2.07589 1.6369 -5.32629 -6.00204)
(-0.143138 -1.83157 -3.03868 2.862 -5.8934 -4.42396)
(-0.140611 -1.08721 -3.2298 4.81643 -6.24683 -4.09632)
(-0.0481355 0.596435 -2.55316 5.36831 -6.32258 -4.79397)
(0.0946548 1.46958 -2.20778 3.85409 -5.12782 -4.82271)
(0.318682 1.03576 -2.08191 2.78372 -3.37825 -4.87806)
(0.408813 0.155781 -1.21802 1.80087 -1.55721 -1.34016)
(-0.0803689 -0.18525 0.158601 1.41282 -0.914689 4.81663)
(0.146182 0.176285 -0.211462 1.95006 -1.2249 4.65868)
(5.62896 0.790793 1.42382 6.40244 -5.2337 -29.1637)
(3.52738 -1.44674 0.974756 9.38387 -4.51177 -23.0631)
(0.576469 -0.250746 5.75314 3.72013 2.72253 -8.15197)
(0.152251 0.508806 7.62721 4.22107 0.729033 -8.96149)
(-0.2388 0.919159 8.09207 3.43981 -2.15896 -9.72326)
(-0.667783 0.225159 5.69858 2.095 -3.77648 -8.96322)
(-0.68818 -0.774204 1.98998 2.16833 -3.46131 -8.65796)
(-0.271381 -1.15395 -0.287379 3.36852 -1.17806 -8.98439)
(0.156994 -0.556031 0.251077 4.61481 0.749418 -9.4945)
(0.276615 0.516906 2.07349 4.29108 1.18188 -8.33182)
(0.136045 1.01105 3.31673 3.26362 0.578626 -7.7979)
(-0.140358 0.635397 3.1796 2.14951 -1.12082 -6.88991)
(-0.364029 -0.0371242 1.68848 1.80322 -2.65553 -6.22987)
(-0.378013 -0.3641 -0.0152279 2.25174 -3.08541 -5.98605)
(-0.240365 -0.259831 -1.03735 2.46707 -2.593 -6.05055)
(-0.0622068 -0.16262 -1.50211 2.20894 -0.991852 -5.774)
(0.131438 -0.257547 -1.47547 2.40268 0.044316 -6.33993)
(0.201261 -0.135759 -0.608617 3.13992 -0.0442476 -7.25909)
(0.0585563 0.313181 0.367666 3.28149 -0.265415 -6.86694)
(-0.167809 0.591391 0.514946 2.83538 -2.00814 -7.32226)
(-0.373991 0.203569 -0.65679 2.03261 -3.48336 -7.47548)
(-0.404668 -0.682366 -2.91132 2.09811 -3.9914 -8.15693)
(-0.154308 -1.15026 -4.52493 3.6108 -3.59794 -9.82046)
(0.197234 -0.628657 -4.08216 5.63736 -2.60629 -12.6486)
(0.295283 0.418509 -2.11945 6.18095 -2.2163 -13.734)
(0.140251 0.98752 -1.11898 4.69923 -2.03703 -11.5944)
(0.128088 0.728122 -1.37305 3.3436 -1.14742 -9.21908)
(0.255833 0.10297 -1.22215 2.33486 -0.0160443 -5.19776)
(0.0126926 -0.146409 -0.0263157 2.00417 0.385742 0.140278)
(0.579285 0.346201 0.279184 2.45546 0.22562 -0.312805)
(6.92097 0.850872 2.45559 6.37393 -0.652991 -33.3088)
(5.89529 -1.18154 -0.79738 8.80968 1.43 -30.2209)
(1.36097 -0.504804 4.92948 3.61439 4.53341 -14.7706)
(0.434696 0.0885221 8.07993 3.61786 2.93792 -13.4199)
(-0.320504 0.262776 8.75992 2.96797 -0.174349 -11.5821)
(-0.964151 -0.050664 5.71436 1.90926 -2.46963 -9.18625)
(-0.916984 -0.434078 1.18361 2.0126 -2.08936 -9.27319)
(-0.230786 -0.557933 -1.37408 3.08272 0.816133 -11.6243)
(0.433636 -0.273971 -0.302774 4.12054 3.30553 -14.009)
(0.543126 0.267669 2.43611 3.91123 3.61734 -13.0954)
(0.183344 0.505031 4.15926 2.9141 2.40858 -10.7569)
(-0.287513 0.265972 3.77374 1.94315 0.153356 -8.06929)
(-0.534016 -0.0786021 1.75631 1.6999 -1.51608 -6.84042)
(-0.455092 -0.223584 -0.285899 2.01907 -1.73205 -6.88276)
(-0.24121 -0.128593 -1.36869 2.1984 -1.18641 -7.61323)
(-0.0426682 -0.0332808 -1.77762 2.00364 0.274122 -7.89888)
(0.174995 -0.0790093 -1.67496 2.18355 1.40564 -8.94481)
(0.311627 -0.0455865 -0.627812 2.79172 1.69225 -10.2679)
(0.17984 0.14316 0.738934 2.87774 1.52392 -9.79944)
(-0.192751 0.251673 1.1012 2.46178 -0.444021 -9.02365)
(-0.579588 0.0532153 -0.456116 1.84392 -2.26341 -8.05951)
(-0.611597 -0.35983 -3.39636 2.04157 -2.64454 -9.09563)
(-0.153165 -0.526049 -5.33548 3.37358 -1.44197 -12.476)
(0.410087 -0.222819 -4.50877 4.97946 0.529311 -16.7372)
(0.506985 0.25655 -1.8697 5.38159 1.25334 -17.8644)
(0.170477 0.53404 -0.504774 4.25245 0.740936 -14.7792)
(0.00547174 0.41042 -0.951087 2.97904 0.824602 -11.1023)
(0.148382 0.0234891 -1.22509 2.08319 1.33178 -6.94942)
(0.0906485 -0.133622 -0.177371 1.74522 1.47223 -2.16644)
(0.934095 0.447661 0.619517 2.0618 1.43554 -2.81656)
(7.51071 0.812191 3.21983 5.21025 3.25777 -33.5826)
(7.02819 -0.860298 -1.9115 7.06644 6.18874 -31.8979)
(1.84148 -0.681585 4.19638 2.72565 5.81393 -17.7934)
(0.606264 -0.275416 8.07408 2.45431 4.2932 -15.0444)
(-0.366981 -0.245558 8.80619 2.08199 1.18224 -11.8137)
(-1.1084 -0.250823 5.49734 1.49054 -1.42933 -8.86542)
(-1.0195 -0.155632 0.709414 1.57689 -0.989698 -9.16292)
(-0.197335 -0.0775895 -1.90576 2.27412 2.28979 -12.3441)
(0.588808 -0.0387529 -0.579762 2.97688 5.07858 -15.6125)
(0.692589 0.0711974 2.58036 2.85767 5.31338 -14.9536)
(0.209473 0.0974835 4.53514 2.1314 3.664 -11.8189)
(-0.370355 -0.0238075 4.03714 1.46025 1.07323 -8.25181)
(-0.62946 -0.115497 1.77524 1.32774 -0.621044 -6.67402)
(-0.498932 -0.117478 -0.436776 1.50432 -0.739815 -6.79362)
(-0.237582 -0.0186205 -1.5484 1.62698 -0.180975 -7.93347)
(-0.023287 0.075558 -1.90003 1.44763 1.1359 -8.59763)
(0.202955 0.0624132 -1.72208 1.56084 2.31317 -9.86448)
(0.369034 0.0204481 -0.592697 1.99311 2.85737 -11.2611)
(0.241409 0.00161406 0.926608 2.02899 2.70144 -10.7302)
(-0.210144 -0.0143553 1.36277 1.80283 0.627256 -9.40205)
(-0.689379 -0.0483208 -0.374921 1.4319 -1.34261 -7.91763)
(-0.714606 -0.0918873 -3.59346 1.64263 -1.54694 -9.07204)
(-0.145417 -0.0410636 -5.62934 2.59688 0.202419 -13.1321)
(0.518055 0.0798187 -4.62124 3.64058 2.74145 -17.7562)
(0.608689 0.130974 -1.75761 3.86599 3.63916 -18.7505)
(0.183956 0.174629 -0.260407 3.14915 2.75241 -15.4434)
(-0.063875 0.136562 -0.774309 2.17466 2.21723 -11.3255)
(0.0791378 -0.0676697 -1.259 1.45092 2.2291 -7.259)
(0.149934 -0.152132 -0.334483 1.10074 2.10985 -2.9058)
(1.18832 0.457454 0.786029 1.24742 2.14635 -3.62942)
(7.52185 0.676202 3.69353 3.38682 5.94223 -31.0654)
(7.17404 -0.550198 -2.40876 4.8215 9.4617 -29.7286)
(2.04419 -0.782621 3.61318 1.55862 6.40277 -18.3145)
(0.682579 -0.548878 7.73494 1.21817 4.81143 -14.9571)
(-0.382825 -0.587061 8.42066 1.13498 1.87098 -11.1733)
(-1.13757 -0.374582 5.13059 0.969546 -0.721797 -8.23349)
(-1.02663 0.0406603 0.473635 1.01745 -0.247792 -8.62717)
(-0.16804 0.26362 -2.03312 1.29568 3.11342 -11.9195)
(0.651667 0.140701 -0.643996 1.66067 5.99327 -15.4159)
(0.751233 -0.0552091 2.58416 1.61809 6.17727 -14.9977)
(0.218902 -0.183463 4.5824 1.23439 4.31732 -11.6879)
(-0.405367 -0.223995 4.06253 0.924971 1.61155 -7.88642)
(-0.669519 -0.147391 1.75206 0.867512 -0.0503782 -6.07418)
(-0.515536 -0.0451436 -0.502447 0.936927 -0.152309 -6.20162)
(-0.22895 0.0638183 -1.60765 0.991532 0.394297 -7.53468)
(-0.00516396 0.155557 -1.90302 0.793795 1.54702 -8.41964)
(0.21723 0.16257 -1.66001 0.823676 2.71487 -9.73035)
(0.385392 0.061915 -0.526158 1.09961 3.41599 -11.0268)
(0.258476 -0.0974932 0.981668 1.11009 3.23627 -10.4738)
(-0.219431 -0.192787 1.39681 1.10023 1.21881 -8.99058)
(-0.726405 -0.111433 -0.371564 0.97737 -0.745881 -7.39671)
(-0.742161 0.0954442 -3.58421 1.1011 -0.817039 -8.45475)
(-0.135127 0.286607 -5.56833 1.63191 1.20678 -12.5388)
(0.548687 0.275061 -4.52704 2.1468 3.97003 -16.9213)
(0.629981 0.0453559 -1.73798 2.22511 4.90987 -17.7419)
(0.182379 -0.0710417 -0.271446 1.86343 3.88657 -14.6015)
(-0.0975866 -0.0689749 -0.783057 1.27912 2.98621 -10.6155)
(0.03637 -0.160309 -1.34215 0.727619 2.64079 -6.74427)
(0.186468 -0.197427 -0.528939 0.387045 2.27086 -2.77211)
(1.33196 0.381052 0.75611 0.353996 2.31102 -3.45936)
(7.13265 0.474569 3.85883 1.37694 7.19864 -27.02)
(6.61366 -0.295948 -2.40776 2.51596 11.2313 -25.1696)
(2.02503 -0.820754 3.19585 0.436522 6.34393 -17.3093)
(0.685535 -0.723444 7.18517 0.168587 4.65925 -13.9953)
(-0.375312 -0.781328 7.7667 0.325317 2.00917 -10.2143)
(-1.08908 -0.43634 4.68373 0.446621 -0.345884 -7.50154)
(-0.968836 0.15901 0.391589 0.449374 0.132912 -7.92892)
(-0.139315 0.475081 -1.8896 0.377584 3.33391 -10.9863)
(0.652669 0.267568 -0.55224 0.44361 6.14319 -14.2795)
(0.746536 -0.112264 2.51953 0.476657 6.30731 -14.0771)
(0.214392 -0.338003 4.43582 0.416171 4.45205 -10.9246)
(-0.410129 -0.341836 3.9324 0.444656 1.83933 -7.2585)
(-0.671644 -0.17276 1.6938 0.452669 0.22871 -5.33879)
(-0.511341 -0.000647495 -0.508569 0.452872 0.0975714 -5.4565)
(-0.216024 0.11584 -1.5794 0.431298 0.605525 -6.81304)
(0.0112132 0.204031 -1.82238 0.198688 1.56577 -7.79457)
(0.220566 0.226344 -1.52701 0.14939 2.67454 -9.03605)
(0.373344 0.087431 -0.445484 0.311543 3.46466 -10.1619)
(0.246086 -0.153084 0.953257 0.342619 3.25894 -9.67062)
(-0.223279 -0.291034 1.29484 0.49378 1.42282 -8.19715)
(-0.715356 -0.150772 -0.420781 0.568396 -0.413323 -6.71233)
(-0.719948 0.197895 -3.45258 0.573959 -0.445643 -7.58721)
(-0.123649 0.470881 -5.29199 0.714278 1.6111 -11.3267)
(0.528912 0.379877 -4.31247 0.792961 4.34077 -15.1595)
(0.599329 -0.00394311 -1.77313 0.781419 5.24348 -15.8393)
(0.168653 -0.211058 -0.433868 0.694221 4.24193 -13.0616)
(-0.11202 -0.205209 -0.916776 0.463224 3.22953 -9.45688)
(0.00888896 -0.247322 -1.48529 0.0691378 2.63336 -5.84636)
(0.19965 -0.259561 -0.779334 -0.231423 2.04547 -2.26076)
(1.37356 0.236037 0.529978 -0.424941 2.01718 -2.84849)
(6.53592 0.241766 3.7207 -0.438535 7.12108 -22.6129)
(5.61963 -0.114866 -2.05703 0.420573 11.6379 -19.4344)
(1.85269 -0.810217 2.92716 -0.476489 5.78538 -15.5341)
(0.637632 -0.810173 6.52684 -0.588377 4.04995 -12.7304)
(-0.352387 -0.865626 6.9728 -0.293451 1.76468 -9.23492)
(-0.993817 -0.455646 4.20437 -0.0224627 -0.261134 -6.82429)
(-0.87143 0.21548 0.399315 -0.0599476 0.19465 -7.2637)
(-0.108473 0.580983 -1.58308 -0.374956 3.07648 -9.95948)
(0.618025 0.349796 -0.353252 -0.54266 5.68949 -12.819)
(0.703238 -0.110999 2.44336 -0.437287 5.87861 -12.7849)
(0.198257 -0.385758 4.20631 -0.237207 4.19666 -9.92073)
(-0.400135 -0.387944 3.72033 0.0559013 1.84071 -6.53483)
(-0.650714 -0.187594 1.61025 0.147301 0.304836 -4.65834)
(-0.493086 0.0209757 -0.477329 0.106101 0.118819 -4.76507)
(-0.200357 0.137887 -1.49823 0.00475977 0.556255 -6.02847)
(0.0261705 0.223223 -1.69319 -0.252984 1.30545 -7.0462)
(0.216698 0.260774 -1.35166 -0.36543 2.31672 -8.1571)
(0.343913 0.105573 -0.355269 -0.289297 3.1488 -9.06522)
(0.216412 -0.17286 0.880356 -0.218924 2.94716 -8.6761)
(-0.225222 -0.328734 1.12434 0.0357885 1.35625 -7.28745)
(-0.678127 -0.175709 -0.505322 0.234172 -0.274607 -5.98289)
(-0.66876 0.226994 -3.27104 0.147155 -0.352234 -6.71174)
(-0.110525 0.53731 -4.91232 -0.031497 1.54289 -9.95173)
(0.481706 0.415928 -4.04101 -0.285079 4.04811 -13.1215)
(0.540246 -0.0219047 -1.83276 -0.334937 4.88623 -13.7065)
(0.145636 -0.267672 -0.666137 -0.207613 4.01055 -11.3845)
(-0.120388 -0.283788 -1.12564 -0.199042 3.06771 -8.16561)
(-0.0123918 -0.324246 -1.69097 -0.447154 2.30893 -4.87935)
(0.190304 -0.330032 -1.09067 -0.707711 1.54853 -1.65967)
(1.3285 0.0589819 0.12706 -1.00989 1.39482 -2.15255)
(5.90025 0.0168923 3.31785 -1.81828 6.00349 -18.7444)
(4.43055 -0.000828591 -1.50805 -1.32355 10.9118 -13.4706)
(1.59392 -0.764521 2.76632 -1.12834 4.90273 -13.5185)
(0.559402 -0.833212 5.83287 -1.06238 3.19599 -11.4904)
(-0.320961 -0.877373 6.13343 -0.740648 1.27164 -8.37248)
(-0.874526 -0.448851 3.72234 -0.417861 -0.41718 -6.30059)
(-0.753607 0.228855 0.452275 -0.4819 -0.0046833 -6.75976)
(-0.0743083 0.608832 -1.19778 -0.936398 2.47691 -9.08363)
(0.568135 0.396722 -0.0858326 -1.25262 4.80702 -11.4463)
(0.64117 -0.0671207 2.39618 -1.09538 5.0707 -11.4963)
(0.17349 -0.354575 3.9728 -0.711327 3.677 -8.92353)
(-0.386675 -0.374144 3.48826 -0.236641 1.68692 -5.8306)
(-0.619486 -0.187961 1.51569 -0.0433416 0.271767 -4.11714)
(-0.467545 0.0237664 -0.428617 -0.111178 0.0184633 -4.21301)
(-0.183426 0.134368 -1.3945 -0.28658 0.347431 -5.32448)
(0.040686 0.219823 -1.54299 -0.54639 0.888525 -6.36551)
(0.209568 0.272614 -1.15437 -0.701655 1.77746 -7.32118)
(0.305451 0.119651 -0.255064 -0.69845 2.60887 -7.97291)
(0.177619 -0.166803 0.790884 -0.591901 2.44041 -7.67559)
(-0.227897 -0.326881 0.926991 -0.276615 1.12352 -6.41455)
(-0.631138 -0.191041 -0.612759 -0.0225326 -0.272016 -5.2894)
(-0.604851 0.201766 -3.09279 -0.157674 -0.440514 -5.95987)
(-0.0950056 0.514385 -4.51498 -0.568203 1.15117 -8.69582)
(0.425292 0.402473 -3.7576 -1.04792 3.29461 -11.232)
(0.470383 -0.0134833 -1.89218 -1.11215 4.07407 -11.737)
(0.115383 -0.265536 -0.912958 -0.820363 3.40954 -9.88168)
(-0.132031 -0.321347 -1.3741 -0.672015 2.61735 -6.97735)
(-0.0337168 -0.390652 -1.95513 -0.812037 1.77948 -4.02663)
(0.166613 -0.403102 -1.45827 -1.0541 0.873774 -1.13261)
(1.22703 -0.106262 -0.383555 -1.39899 0.569711 -1.59114)
(5.35252 -0.145638 2.76092 -2.6697 4.23283 -15.9544)
(3.23303 0.0597929 -0.895319 -2.66235 9.3093 -7.96277)
(1.3021 -0.697177 2.65759 -1.53283 3.85187 -11.5954)
(0.46878 -0.819615 5.14336 -1.3219 2.24693 -10.415)
(-0.285064 -0.846626 5.30919 -1.05257 0.616448 -7.70777)
(-0.746971 -0.426483 3.25746 -0.735435 -0.770583 -5.99542)
(-0.629078 0.215763 0.521574 -0.811057 -0.40947 -6.4937)
(-0.0367902 0.585784 -0.793792 -1.32584 1.65188 -8.48289)
(0.517413 0.418567 0.22075 -1.70874 3.66654 -10.3899)
(0.574732 0.00265231 2.40299 -1.52327 4.03261 -10.4258)
(0.143469 -0.271713 3.78652 -1.0264 2.99334 -8.07927)
(-0.376634 -0.3144 3.28294 -0.444365 1.43002 -5.22349)
(-0.588138 -0.172656 1.42593 -0.147304 0.198662 -3.72809)
(-0.440773 0.0114096 -0.37837 -0.23138 -0.130277 -3.81565)
(-0.166108 0.112693 -1.29028 -0.47192 0.0532179 -4.76434)
(0.0556908 0.202245 -1.38954 -0.712481 0.407017 -5.83338)
(0.20207 0.267296 -0.950659 -0.890926 1.16192 -6.63204)
(0.263982 0.129763 -0.147679 -0.950838 1.9522 -7.00922)
(0.134859 -0.143572 0.70328 -0.807384 1.8418 -6.79116)
(-0.233085 -0.30287 0.728134 -0.469463 0.80219 -5.66126)
(-0.585213 -0.200299 -0.735417 -0.210982 -0.364591 -4.68825)
(-0.540106 0.141973 -2.95252 -0.358091 -0.633142 -5.38202)
(-0.0769222 0.430488 -4.16116 -0.913682 0.565749 -7.70293)
(0.373118 0.355589 -3.49447 -1.527 2.27109 -9.7214)
(0.402108 0.0134541 -1.93188 -1.59846 2.99679 -10.134)
(0.0789351 -0.224543 -1.13919 -1.19562 2.60592 -8.66423)
(-0.152947 -0.333044 -1.64053 -0.961246 1.99765 -6.03219)
(-0.0591875 -0.451704 -2.2735 -1.05137 1.12778 -3.36641)
(0.138628 -0.477578 -1.8774 -1.30488 0.0793011 -0.769679)
(1.11469 -0.229356 -0.927471 -1.64079 -0.379452 -1.289)
(4.98056 -0.204391 2.20331 -3.02882 2.18493 -14.4318)
(2.16989 0.0767307 -0.335932 -3.58347 7.08105 -3.40146)
(1.0194 -0.619935 2.54042 -1.73276 2.74816 -9.96127)
(0.380319 -0.791418 4.47352 -1.43131 1.28549 -9.58271)
(-0.246011 -0.796117 4.53218 -1.25855 -0.149388 -7.29853)
(-0.620935 -0.394536 2.82281 -0.971297 -1.28487 -5.9598)
(-0.506945 0.188438 0.590396 -1.05038 -0.972956 -6.50922)
(0.00371113 0.533454 -0.406327 -1.57044 0.680712 -8.21416)
(0.474662 0.424623 0.546428 -1.96763 2.39179 -9.72661)
(0.513205 0.0851307 2.47436 -1.76499 2.87207 -9.6833)
(0.111477 -0.159278 3.67781 -1.21064 2.21749 -7.47312)
(-0.373533 -0.223301 3.13644 -0.576326 1.10337 -4.77509)
(-0.564123 -0.143115 1.35481 -0.19839 0.120325 -3.47624)
(-0.417375 -0.0124115 -0.338004 -0.284014 -0.287008 -3.57481)
(-0.14852 0.0797338 -1.19826 -0.584847 -0.286426 -4.37356)
(0.071519 0.177863 -1.24262 -0.7963 -0.0905766 -5.46848)
(0.195644 0.249285 -0.752751 -0.981315 0.529397 -6.12094)
(0.223709 0.136027 -0.0378103 -1.08867 1.24489 -6.23773)
(0.0914381 -0.109711 0.628373 -0.905565 1.22695 -6.08546)
(-0.241949 -0.268983 0.541113 -0.57204 0.443697 -5.07127)
(-0.546674 -0.206508 -0.869384 -0.336415 -0.526402 -4.22948)
(-0.48228 0.0637755 -2.86964 -0.481438 -0.883981 -4.99098)
(-0.0565577 0.310095 -3.8885 -1.10912 -0.120649 -7.02691)
(0.333833 0.28792 -3.27386 -1.79008 1.11554 -8.65906)
(0.343462 0.0510506 -1.94307 -1.86035 1.78857 -8.98201)
(0.0370363 -0.15935 -1.32208 -1.39109 1.70819 -7.77643)
(-0.187387 -0.329918 -1.9123 -1.10636 1.30692 -5.36576)
(-0.0918272 -0.514769 -2.64787 -1.18753 0.405664 -2.94742)
(0.118564 -0.554792 -2.34958 -1.48537 -0.810801 -0.638064)
(1.04066 -0.294541 -1.43672 -1.78966 -1.41769 -1.32849)
(4.8285 -0.147274 1.77791 -3.00854 0.146502 -14.0955)
(1.34278 0.0611223 0.0800211 -4.09449 4.47125 -0.113244)
(0.777308 -0.540884 2.36067 -1.77564 1.66728 -8.72102)
(0.304755 -0.76315 3.82102 -1.43666 0.354395 -9.03892)
(-0.203182 -0.740314 3.81465 -1.36795 -0.993202 -7.19814)
(-0.501718 -0.357415 2.42727 -1.12195 -1.91841 -6.23024)
(-0.393035 0.155476 0.649456 -1.20153 -1.65584 -6.82974)
(0.0465018 0.467328 -0.0549185 -1.69171 -0.375341 -8.31146)
(0.444652 0.420738 0.878395 -2.07495 1.05629 -9.48611)
(0.462131 0.171456 2.61333 -1.85957 1.6613 -9.3191)
(0.0802481 -0.0331186 3.66224 -1.2866 1.4003 -7.15373)
(-0.378677 -0.114613 3.06835 -0.636171 0.73757 -4.53727)
(-0.552222 -0.102953 1.3136 -0.217691 0.0442128 -3.35173)
(-0.400489 -0.0432006 -0.314728 -0.299791 -0.430063 -3.47614)
(-0.130395 0.0398786 -1.12516 -0.644812 -0.656594 -4.17251)
(0.0880237 0.151469 -1.10652 -0.83376 -0.589663 -5.26867)
(0.190674 0.22313 -0.569758 -1.01254 -0.0973717 -5.79139)
(0.187431 0.139638 0.0708495 -1.13945 0.521042 -5.7013)
(0.0493995 -0.0699822 0.572195 -0.927573 0.637376 -5.57584)
(-0.255171 -0.231936 0.370701 -0.607735 0.0793657 -4.66698)
(-0.518689 -0.211704 -1.01306 -0.398225 -0.730936 -3.96028)
(-0.43577 -0.0220996 -2.85213 -0.54345 -1.17114 -4.79735)
(-0.0346609 0.172117 -3.7176 -1.1942 -0.851365 -6.67631)
(0.312049 0.208941 -3.11065 -1.89639 -0.0922554 -8.05926)
(0.299386 0.0934778 -1.923 -1.95665 0.535253 -8.30278)
(-0.00952251 -0.0815156 -1.44846 -1.45327 0.785862 -7.22945)
(-0.238393 -0.31962 -2.18202 -1.14535 0.600435 -4.97076)
(-0.133884 -0.583191 -3.08465 -1.23897 -0.344451 -2.79632)
(0.116499 -0.638979 -2.88357 -1.60311 -1.78175 -0.799179)
(1.04769 -0.31437 -1.87525 -1.8832 -2.53695 -1.77155)
(4.90623 -0.0136192 1.57989 -2.73839 -1.71353 -14.7197)
(0.81203 0.0272878 0.296095 -4.21493 1.71269 1.72675)
(0.595454 -0.464105 2.07911 -1.70027 0.653874 -7.9161)
(0.24893 -0.740471 3.17498 -1.36525 -0.52534 -8.80154)
(-0.155378 -0.687457 3.15926 -1.37502 -1.87711 -7.45086)
(-0.391618 -0.31941 2.07619 -1.18421 -2.63316 -6.80843)
(-0.290275 0.122776 0.695732 -1.25852 -2.422 -7.46521)
(0.0905299 0.397888 0.252396 -1.70356 -1.47225 -8.7646)
(0.429123 0.410917 1.20723 -2.05409 -0.290998 -9.6756)
(0.42448 0.25563 2.81834 -1.8297 0.450787 -9.35099)
(0.0516469 0.0953426 3.74582 -1.26668 0.580955 -7.14386)
(-0.392093 -0.000335171 3.08756 -0.626587 0.364235 -4.53351)
(-0.55457 -0.0582478 1.30999 -0.213421 -0.0292707 -3.35754)
(-0.392028 -0.0763502 -0.311653 -0.303641 -0.564804 -3.488)
(-0.111679 -0.00286588 -1.07542 -0.65651 -1.04506 -4.18336)
(0.105015 0.124861 -0.982271 -0.842664 -1.09253 -5.23131)
(0.187092 0.194273 -0.407287 -1.00638 -0.715002 -5.64161)
(0.156709 0.141925 0.176142 -1.11643 -0.192207 -5.43132)
(0.00994424 -0.0286842 0.537759 -0.902385 0.0805341 -5.26136)
(-0.272959 -0.193906 0.218582 -0.590752 -0.27266 -4.45828)
(-0.502537 -0.21596 -1.16571 -0.396135 -0.947724 -3.90283)
(-0.402525 -0.108731 -2.90165 -0.547393 -1.47509 -4.81704)
(-0.0119984 0.0301237 -3.65599 -1.1935 -1.59376 -6.64288)
(0.309426 0.126708 -3.01214 -1.88171 -1.30466 -7.91419)
(0.272201 0.136879 -1.87176 -1.92561 -0.710282 -8.08799)
(-0.0601334 -6.43104e-05 -1.51403 -1.41247 -0.117334 -7.0158)
(-0.307229 -0.307383 -2.44566 -1.09883 -0.0854562 -4.8485)
(-0.18764 -0.656668 -3.58777 -1.21936 -1.0915 -2.90871)
(0.134871 -0.734869 -3.49659 -1.65333 -2.81493 -1.2865)
(1.14486 -0.321058 -2.2519 -1.92715 -3.73766 -2.64059)
(5.18183 0.130068 1.61335 -2.31662 -3.32545 -16.0476)
(0.598211 -0.00993195 0.290964 -3.97404 -0.978123 2.08391)
(0.481604 -0.390375 1.67602 -1.53093 -0.267232 -7.54158)
(0.215587 -0.721448 2.52655 -1.22858 -1.34354 -8.86059)
(-0.101979 -0.640864 2.56247 -1.27336 -2.75207 -8.0538)
(-0.290816 -0.283823 1.7703 -1.14233 -3.39698 -7.69513)
(-0.199675 0.0943184 0.730808 -1.20267 -3.23085 -8.41677)
(0.1345 0.331214 0.514488 -1.59625 -2.57832 -9.56463)
(0.427846 0.397884 1.52732 -1.90426 -1.60802 -10.2868)
(0.401209 0.332446 3.08398 -1.67841 -0.716832 -9.77444)
(0.0267916 0.216371 3.92644 -1.15267 -0.205517 -7.44413)
(-0.413141 0.10865 3.19516 -0.548741 0.0132871 -4.76445)
(-0.571227 -0.0161634 1.34579 -0.186956 -0.0987409 -3.49118)
(-0.392377 -0.107456 -0.328274 -0.29532 -0.713376 -3.60897)
(-0.0926838 -0.0439272 -1.04949 -0.618371 -1.43452 -4.40686)
(0.122261 0.0980635 -0.870479 -0.822312 -1.60554 -5.35712)
(0.184731 0.167925 -0.265966 -0.96611 -1.32639 -5.67018)
(0.131799 0.1436 0.276541 -1.02826 -0.867517 -5.4233)
(-0.0261636 0.0102414 0.52425 -0.837356 -0.452457 -5.14446)
(-0.294751 -0.154784 0.0861657 -0.525304 -0.600002 -4.44705)
(-0.498185 -0.217789 -1.32473 -0.331514 -1.14733 -4.05611)
(-0.382953 -0.190493 -3.01534 -0.493513 -1.7719 -5.04479)
(0.0107775 -0.105304 -3.70189 -1.11174 -2.32509 -6.9134)
(0.325457 0.048293 -2.97878 -1.7558 -2.48709 -8.20436)
(0.261913 0.177845 -1.79157 -1.7803 -1.9108 -8.31548)
(-0.114144 0.0772587 -1.52012 -1.28259 -0.971162 -7.11643)
(-0.393551 -0.296415 -2.70249 -0.977566 -0.716001 -4.98475)
(-0.255284 -0.732576 -4.1582 -1.12871 -1.8134 -3.2788)
(0.167623 -0.841272 -4.20568 -1.61891 -3.88476 -2.10416)
(1.3172 -0.34776 -2.61659 -1.89367 -5.00928 -3.93623)
(5.60251 0.23219 1.81958 -1.77946 -4.67279 -17.8655)
(0.685745 -0.0379665 0.0759677 -3.40728 -3.40451 1.04943)
(0.433153 -0.318056 1.15354 -1.27558 -1.07954 -7.55691)
(0.203863 -0.700327 1.87492 -1.02222 -2.09247 -9.18176)
(-0.0436386 -0.598019 2.01867 -1.05888 -3.57389 -8.94884)
(-0.198528 -0.251368 1.50596 -0.963236 -4.15494 -8.89057)
(-0.121006 0.0726481 0.759386 -1.00212 -4.02599 -9.67161)
(0.176942 0.271263 0.734301 -1.33435 -3.63833 -10.7053)
(0.439107 0.382429 1.83498 -1.60057 -2.84465 -11.2968)
(0.391522 0.395621 3.4007 -1.38984 -1.7941 -10.563)
(0.00609188 0.319282 4.19408 -0.936186 -0.921593 -8.03251)