/*--------------------------------*- C++ -*----------------------------------*\
| =========                 |                                                 |
| \\      /  F ield         | OpenFOAM: The Open Source CFD Toolbox           |
|  \\    /   O peration     | Version:  2106                                  |
|   \\  /    A nd           | Website:  www.openfoam.com                      |
|    \\/     M anipulation  |                                                 |
\*---------------------------------------------------------------------------*/
FoamFile
{
    version     2.0;
    format      ascii;
    arch        "LSB;label=32;scalar=64";
    class       volSymmTensorField;
    location    "664";
    object      sigma;
}
// * * * * * * * * * * * * * * * * * * * * * * * * * * * * * * * * * * * * * //

dimensions      [1 -1 -2 0 0 0 0];

internalField   nonuniform List<symmTensor> 
9000
(
(1.84362e+10 -3.61021e+08 1.01012e+10 1.01658e+10 -1.35536e+09 1.09671e+11)
(3.38923e+10 1.00568e+08 6.12939e+09 1.16687e+10 3.75215e+09 1.10624e+11)
(3.11752e+10 8.64872e+07 -2.41727e+09 1.01341e+10 1.80108e+09 9.42036e+10)
(1.50851e+10 2.36846e+08 -5.20868e+09 4.33681e+09 -3.85627e+08 4.06405e+10)
(2.51956e+09 9.96962e+07 4.56864e+08 -1.26949e+08 -1.54823e+09 -6.04016e+08)
(4.00791e+09 -1.42453e+08 8.0572e+09 4.70049e+08 -1.25697e+09 5.4078e+09)
(1.76435e+10 -2.47258e+08 1.04464e+10 5.45578e+09 4.53547e+08 5.083e+10)
(3.03023e+10 -9.7324e+07 5.37527e+09 9.94439e+09 1.68842e+09 9.22264e+10)
(3.06901e+10 1.16121e+08 -2.41226e+09 9.91862e+09 2.15216e+09 9.28264e+10)
(2.07804e+10 2.00969e+08 -6.26776e+09 6.32086e+09 1.09216e+09 5.94685e+10)
(9.53574e+09 1.50365e+08 -4.20391e+09 2.42303e+09 -1.03838e+08 2.30356e+10)
(4.94351e+09 5.33603e+06 2.71074e+08 9.99616e+08 -7.08506e+08 9.83073e+09)
(7.58441e+09 -7.40982e+07 2.55003e+09 2.10247e+09 -7.5999e+08 1.98199e+10)
(1.14676e+10 -4.19564e+07 2.35011e+09 3.45951e+09 -3.45665e+08 3.24162e+10)
(1.45393e+10 -2.85782e+07 1.79542e+09 4.30336e+09 6.67793e+08 4.12717e+10)
(1.77978e+10 -7.81545e+07 1.52139e+09 5.31462e+09 1.22243e+09 5.08543e+10)
(2.1037e+10 -4.3604e+07 3.47007e+08 6.58109e+09 1.08726e+09 6.17065e+10)
(2.06008e+10 5.47323e+07 -3.16998e+09 6.55986e+09 9.2313e+08 6.12131e+10)
(1.31735e+10 1.16859e+08 -5.83843e+09 3.93991e+09 -2.89505e+08 3.68751e+10)
(5.12141e+09 6.54316e+07 -3.24371e+09 9.33629e+08 -1.10848e+09 9.38274e+09)
(5.66062e+09 -1.40248e+08 2.7847e+09 9.83747e+08 -9.64727e+08 1.05929e+10)
(1.68099e+10 -2.95131e+08 6.05351e+09 4.92729e+09 -2.04159e+08 4.72582e+10)
(2.90919e+10 -1.98271e+08 2.66461e+09 9.40677e+09 2.52397e+08 8.72185e+10)
(3.08337e+10 9.42831e+07 -3.9798e+09 9.89578e+09 1.99392e+08 9.19358e+10)
(2.27195e+10 2.34044e+08 -6.91809e+09 6.75631e+09 2.46638e+08 6.403e+10)
(1.61139e+10 1.69044e+08 -4.27976e+09 4.36832e+09 9.49258e+07 4.12261e+10)
(1.571e+10 6.88938e+07 1.78895e+08 4.33913e+09 8.15798e+08 4.10363e+10)
(2.05574e+10 -4.62183e+06 1.29774e+09 6.45427e+09 1.69954e+09 5.99011e+10)
(1.97178e+10 -2.11553e+08 -3.25809e+09 6.62654e+09 1.46177e+09 6.04754e+10)
(2.54509e+09 -1.23421e+08 -3.45328e+09 1.67769e+09 -2.90471e+09 1.70154e+10)
(1.42043e+10 -7.49278e+08 8.01145e+09 1.32742e+10 -9.83089e+09 7.9568e+10)
(2.44732e+10 2.83244e+08 5.58665e+09 1.30304e+10 1.51939e+09 7.60887e+10)
(2.31881e+10 7.43991e+08 -1.0449e+07 1.20552e+10 -2.19114e+09 6.55443e+10)
(1.12584e+10 1.35733e+09 -2.171e+09 5.29301e+09 -3.93128e+09 2.83806e+10)
(1.76794e+09 5.32826e+08 1.48273e+09 -1.78539e+08 -4.01064e+09 -6.34068e+08)
(2.90652e+09 -7.71361e+08 6.3197e+09 5.48097e+08 -3.70984e+09 3.71145e+09)
(1.28245e+10 -1.32354e+09 7.63496e+09 6.23313e+09 -2.57068e+09 3.48483e+10)
(2.2429e+10 -5.98329e+08 3.99797e+09 1.17733e+10 -2.27689e+09 6.4024e+10)
(2.28405e+10 5.53574e+08 -1.4479e+09 1.17275e+10 -1.31341e+09 6.47588e+10)
(1.54881e+10 1.08349e+09 -4.04491e+09 7.47162e+09 -1.64697e+09 4.13939e+10)
(7.05405e+09 7.98039e+08 -2.52121e+09 2.803e+09 -2.09027e+09 1.57967e+10)
(3.71254e+09 4.59608e+07 5.49969e+08 1.20672e+09 -2.64624e+09 6.89362e+09)
(5.86327e+09 -3.7224e+08 1.91463e+09 2.80134e+09 -3.38598e+09 1.43345e+10)
(8.78384e+09 -2.86438e+08 1.48914e+09 4.43077e+09 -3.19674e+09 2.3182e+10)
(1.08515e+10 -2.29482e+08 9.66716e+08 5.0536e+09 -1.47234e+09 2.88727e+10)
(1.31466e+10 -3.65244e+08 8.75888e+08 6.06717e+09 -8.13154e+08 3.52042e+10)
(1.5685e+10 -1.90823e+08 1.90416e+08 7.80411e+09 -1.75974e+09 4.29888e+10)
(1.5538e+10 3.41335e+08 -2.23174e+09 7.99693e+09 -2.08944e+09 4.31061e+10)
(1.00485e+10 7.1301e+08 -4.16179e+09 4.99222e+09 -3.3752e+09 2.61626e+10)
(3.92698e+09 3.69387e+08 -2.46917e+09 1.243e+09 -3.59158e+09 6.69731e+09)
(4.27572e+09 -6.76824e+08 1.61254e+09 1.14557e+09 -3.41945e+09 7.51489e+09)
(1.27183e+10 -1.37787e+09 3.79052e+09 6.01823e+09 -4.02471e+09 3.34372e+10)
(2.19076e+10 -8.73879e+08 1.351e+09 1.16043e+10 -5.4321e+09 6.12643e+10)
(2.332e+10 4.19174e+08 -3.38753e+09 1.23246e+10 -5.92515e+09 6.47747e+10)
(1.71218e+10 1.01715e+09 -5.53749e+09 8.22573e+09 -4.11032e+09 4.50445e+10)
(1.207e+10 6.43127e+08 -3.6899e+09 5.21631e+09 -2.94589e+09 2.86251e+10)
(1.19287e+10 5.81022e+07 -3.83411e+08 5.20871e+09 -1.17981e+09 2.87876e+10)
(1.58938e+10 -1.38112e+08 8.62787e+08 8.0428e+09 -2.52437e+08 4.27762e+10)
(1.54911e+10 -1.45419e+08 -1.89621e+09 8.57241e+09 -7.18327e+08 4.35028e+10)
(6.10522e+08 1.7472e+08 -1.94897e+09 5.50556e+08 -7.81571e+09 5.98458e+09)
(8.86787e+09 -9.62261e+08 6.06384e+09 1.28349e+10 -1.23972e+10 4.62872e+10)
(1.66149e+10 3.29025e+08 5.28029e+09 1.29271e+10 1.10948e+07 4.76045e+10)
(1.53363e+10 9.15132e+08 1.89234e+09 1.1809e+10 -3.6219e+09 3.94818e+10)
(6.70692e+09 1.68592e+09 5.83001e+08 4.83074e+09 -5.00447e+09 1.51845e+10)
(-8.4435e+07 6.48854e+08 2.41885e+09 -8.28157e+08 -4.67566e+09 -3.36358e+09)
(7.87079e+08 -9.81018e+08 4.71109e+09 -6.03145e+07 -4.43156e+09 -3.33806e+08)
(7.8918e+09 -1.66613e+09 5.01498e+09 5.78115e+09 -3.69491e+09 1.97153e+10)
(1.48118e+10 -7.69152e+08 2.73198e+09 1.15516e+10 -3.72021e+09 3.84919e+10)
(1.54101e+10 6.98737e+08 -4.97406e+08 1.16503e+10 -2.82722e+09 3.97465e+10)
(1.01346e+10 1.38813e+09 -1.94862e+09 7.28868e+09 -2.71645e+09 2.44551e+10)
(4.14442e+09 1.00919e+09 -9.32119e+08 2.47352e+09 -2.77344e+09 8.04263e+09)
(1.83453e+09 4.90003e+07 7.64721e+08 8.28556e+08 -3.31995e+09 2.64454e+09)
(3.3973e+09 -4.74476e+08 1.2712e+09 2.50767e+09 -4.20429e+09 7.50264e+09)
(5.49438e+09 -3.63483e+08 7.53039e+08 4.18055e+09 -4.10917e+09 1.32137e+10)
(7.03998e+09 -2.87786e+08 2.89474e+08 4.85372e+09 -2.43913e+09 1.70853e+10)
(8.63238e+09 -4.5602e+08 2.32562e+08 5.87206e+09 -1.83441e+09 2.09834e+10)
(1.03435e+10 -2.43627e+08 -2.00922e+07 7.6135e+09 -2.86865e+09 2.56604e+10)
(1.03421e+10 4.31446e+08 -1.41055e+09 7.89244e+09 -3.23582e+09 2.60429e+10)
(6.23625e+09 9.07173e+08 -2.63808e+09 4.7082e+09 -4.31568e+09 1.46163e+10)
(1.78661e+09 4.52224e+08 -1.73674e+09 7.66959e+08 -4.32424e+09 1.96995e+09)
(1.98989e+09 -8.747e+08 4.47486e+08 5.8794e+08 -4.3284e+09 2.56518e+09)
(7.89316e+09 -1.74151e+09 1.48596e+09 5.55294e+09 -5.44482e+09 1.89347e+10)
(1.40902e+10 -1.09708e+09 -4.77331e+07 1.11789e+10 -7.21456e+09 3.56913e+10)
(1.49926e+10 5.30849e+08 -2.74617e+09 1.19025e+10 -7.78869e+09 3.75961e+10)
(1.08929e+10 1.31044e+09 -4.00037e+09 7.83959e+09 -5.68529e+09 2.5853e+10)
(7.49344e+09 8.51931e+08 -2.88906e+09 4.86816e+09 -3.9883e+09 1.56302e+10)
(8.01975e+09 9.43734e+07 -6.64195e+08 5.16621e+09 -2.0551e+09 1.71984e+10)
(1.15017e+10 -1.70454e+08 5.3127e+08 8.43865e+09 -1.27858e+09 2.8055e+10)
(1.14572e+10 -1.07322e+08 -1.11819e+09 9.13278e+09 -1.7089e+09 2.872e+10)
(-2.05969e+09 3.28201e+08 -8.43405e+08 -1.38231e+09 -8.36437e+09 -8.27417e+09)
(3.66538e+09 -1.07239e+09 4.11537e+09 9.46889e+09 -1.09821e+10 1.6478e+10)
(9.17187e+09 2.24267e+08 4.92968e+09 9.49716e+09 -2.61576e+08 2.37891e+10)
(7.91205e+09 8.41542e+08 3.3969e+09 8.63632e+09 -3.05501e+09 1.78053e+10)
(2.30533e+09 1.52982e+09 2.85181e+09 3.08753e+09 -4.44817e+09 3.658e+09)
(-1.98743e+09 5.63037e+08 3.16066e+09 -1.47204e+09 -4.33662e+09 -6.42796e+09)
(-1.37427e+09 -9.42466e+08 3.3067e+09 -8.3712e+08 -4.13875e+09 -4.47696e+09)
(3.187e+09 -1.56228e+09 2.76423e+09 3.82808e+09 -3.41536e+09 6.7951e+09)
(7.61079e+09 -7.32733e+08 1.63682e+09 8.49811e+09 -3.19256e+09 1.71863e+10)
(8.31812e+09 6.63954e+08 3.30798e+08 8.72485e+09 -2.54448e+09 1.87305e+10)
(4.98736e+09 1.32571e+09 -1.30538e+08 5.26163e+09 -2.33379e+09 1.00417e+10)
(1.30682e+09 9.34831e+08 4.29661e+08 1.42661e+09 -2.51765e+09 1.20141e+09)
(-7.11167e+07 3.20593e+07 9.35573e+08 1.66915e+08 -3.19647e+09 -1.46888e+09)
(9.60817e+08 -4.47939e+08 7.11322e+08 1.5908e+09 -3.93625e+09 1.32797e+09)
(2.29377e+09 -3.43566e+08 1.31727e+08 2.91133e+09 -3.79597e+09 4.51012e+09)
(3.34214e+09 -2.66821e+08 -2.72675e+08 3.39443e+09 -2.37447e+09 6.93479e+09)
(4.28952e+09 -4.16973e+08 -3.21392e+08 4.13735e+09 -1.79442e+09 8.88784e+09)
(5.24253e+09 -2.24227e+08 -2.12438e+08 5.52324e+09 -2.56468e+09 1.10327e+10)
(5.3048e+09 4.12124e+08 -7.0961e+08 5.86437e+09 -2.88383e+09 1.14407e+10)
(2.51667e+09 8.5206e+08 -1.33431e+09 3.24037e+09 -3.83611e+09 4.53829e+09)
(-3.76876e+08 3.92634e+08 -1.13322e+09 -1.91194e+07 -4.04416e+09 -2.58631e+09)
(-3.7097e+08 -8.47729e+08 -5.89966e+08 -2.62998e+08 -4.2649e+09 -2.38835e+09)
(3.14297e+09 -1.62569e+09 -5.31299e+08 3.65291e+09 -5.21093e+09 6.1027e+09)
(6.61485e+09 -1.00452e+09 -1.27732e+09 8.03565e+09 -6.40866e+09 1.39335e+10)
(7.02146e+09 5.04799e+08 -2.17417e+09 8.60725e+09 -6.78617e+09 1.44059e+10)
(4.83458e+09 1.25612e+09 -2.597e+09 5.48898e+09 -5.19769e+09 9.11723e+09)
(3.07648e+09 8.47688e+08 -2.08642e+09 3.24071e+09 -3.56057e+09 4.3523e+09)
(4.24291e+09 1.14345e+08 -7.88375e+08 3.8599e+09 -1.89476e+09 7.3152e+09)
(7.34263e+09 -1.56762e+08 2.83716e+08 7.04372e+09 -1.29843e+09 1.60472e+10)
(7.60516e+09 -8.64329e+06 -5.7244e+08 7.79694e+09 -1.62081e+09 1.65356e+10)
(-4.47438e+09 4.46762e+08 1.17512e+08 -3.56352e+09 -6.4968e+09 -2.09352e+10)
(-5.14291e+08 -1.07986e+09 2.25925e+09 4.99095e+09 -7.37828e+09 -6.36057e+09)
(2.9975e+09 3.44821e+07 4.46021e+09 4.95691e+09 5.65995e+08 5.40546e+09)
(1.93765e+09 6.25949e+08 4.496e+09 4.46912e+09 -1.3764e+09 1.88434e+09)
(-1.2532e+09 1.11459e+09 4.49382e+09 8.83477e+08 -3.04994e+09 -4.84769e+09)
(-3.56044e+09 3.70055e+08 3.64496e+09 -2.13912e+09 -3.52304e+09 -8.83854e+09)
(-3.17473e+09 -7.62359e+08 2.17871e+09 -1.69066e+09 -3.33369e+09 -7.75588e+09)
(-6.45215e+08 -1.21409e+09 1.01811e+09 1.40372e+09 -2.26442e+09 -2.91379e+09)
(1.78598e+09 -5.76988e+08 7.77017e+08 4.49816e+09 -1.49537e+09 1.42221e+09)
(2.50444e+09 5.27191e+08 9.72798e+08 4.81712e+09 -1.06271e+09 2.9695e+09)
(7.987e+08 1.04659e+09 1.28187e+09 2.56052e+09 -1.07545e+09 -6.31678e+08)
(-1.02482e+09 7.05978e+08 1.46437e+09 1.27164e+08 -1.72569e+09 -3.95277e+09)
(-1.66575e+09 4.73321e+06 1.06284e+09 -5.94418e+08 -2.59893e+09 -4.70899e+09)
(-1.01894e+09 -3.55656e+08 2.83853e+08 4.68773e+08 -3.10787e+09 -3.30675e+09)
(-2.98737e+08 -2.69679e+08 -3.55525e+08 1.28484e+09 -2.85649e+09 -1.94742e+09)
(3.06754e+08 -1.99117e+08 -7.10965e+08 1.50216e+09 -1.6414e+09 -7.08423e+08)
(7.24936e+08 -3.06423e+08 -7.35994e+08 1.88005e+09 -1.01475e+09 -2.06695e+08)
(1.09554e+09 -1.62628e+08 -3.46729e+08 2.77873e+09 -1.40932e+09 1.69445e+08)
(1.19513e+09 3.27422e+08 -1.51755e+08 3.12846e+09 -1.63313e+09 5.91794e+08)
(-4.78713e+08 6.50922e+08 -3.31678e+08 1.32569e+09 -2.6558e+09 -2.8246e+09)
(-2.16216e+09 2.67683e+08 -7.0696e+08 -9.20228e+08 -3.27828e+09 -6.06865e+09)
(-2.37952e+09 -6.84277e+08 -1.41048e+09 -1.21913e+09 -3.61899e+09 -6.40947e+09)
(-7.79189e+08 -1.24448e+09 -2.06465e+09 1.26268e+09 -4.00432e+09 -3.68783e+09)
(6.02339e+08 -7.38712e+08 -2.19452e+09 3.97044e+09 -4.24446e+09 -2.0854e+09)
(6.32984e+08 4.05252e+08 -1.73477e+09 4.31323e+09 -4.29593e+09 -2.59161e+09)
(-1.1565e+08 9.98516e+08 -1.5001e+09 2.43873e+09 -3.48414e+09 -3.4568e+09)
(-5.08018e+08 7.03754e+08 -1.41457e+09 1.16687e+09 -2.29538e+09 -4.03898e+09)
(1.15081e+09 1.05847e+08 -8.27596e+08 2.09665e+09 -1.05806e+09 -3.75472e+07)
(4.00709e+09 -1.25869e+08 1.07763e+08 5.02166e+09 -6.21493e+08 7.3344e+09)
(4.52693e+09 1.19778e+08 -1.4368e+08 5.75259e+09 -8.32271e+08 7.59299e+09)
(-6.17476e+09 5.37311e+08 9.67425e+08 -5.64921e+09 -3.55608e+09 -2.98149e+10)
(-3.38675e+09 -9.82997e+08 6.62306e+08 5.92489e+08 -3.06556e+09 -2.14539e+10)
(-1.58893e+09 -1.70372e+08 3.90902e+09 5.47056e+08 1.84985e+09 -7.51954e+09)
(-2.31976e+09 3.45712e+08 5.18237e+09 4.44837e+08 4.95348e+08 -8.51217e+09)
(-3.75357e+09 6.2453e+08 5.49823e+09 -1.2541e+09 -1.46692e+09 -1.01979e+10)
(-4.65731e+09 1.52986e+08 3.87195e+09 -2.78012e+09 -2.56596e+09 -1.02937e+10)
(-4.45484e+09 -5.26039e+08 1.35211e+09 -2.51396e+09 -2.35181e+09 -9.86997e+09)
(-3.39219e+09 -7.84063e+08 -1.95262e+08 -9.19028e+08 -8.00445e+08 -9.31231e+09)
(-2.39778e+09 -3.778e+08 1.70596e+08 6.3112e+08 5.09198e+08 -8.95557e+09)
(-1.73756e+09 3.51216e+08 1.40885e+09 9.90097e+08 8.03041e+08 -7.58663e+09)
(-2.21605e+09 6.86967e+08 2.25358e+09 -9.09927e+07 3.93152e+08 -7.60684e+09)
(-2.69528e+09 4.31726e+08 2.16041e+09 -1.13941e+09 -7.61547e+08 -7.28132e+09)
(-2.79285e+09 -2.52243e+07 1.14725e+09 -1.3203e+09 -1.80432e+09 -6.77845e+09)
(-2.39265e+09 -2.47391e+08 -1.03467e+07 -6.05845e+08 -2.09641e+09 -6.20308e+09)
(-2.1249e+09 -1.76545e+08 -7.04833e+08 -2.85306e+08 -1.76184e+09 -6.07268e+09)
(-1.88512e+09 -1.10493e+08 -1.02062e+09 -3.41967e+08 -6.73922e+08 -5.76604e+09)
(-1.86138e+09 -1.74993e+08 -1.00252e+09 -3.18172e+08 3.01109e+07 -6.25841e+09)
(-1.88165e+09 -9.22427e+07 -4.1353e+08 1.15049e+08 -3.00644e+07 -6.95065e+09)
(-1.74245e+09 2.12793e+08 2.49814e+08 4.47398e+08 -1.80338e+08 -6.44804e+09)
(-2.57739e+09 4.01826e+08 3.49884e+08 -5.36851e+08 -1.36445e+09 -7.43855e+09)
(-3.4194e+09 1.38317e+08 -4.46261e+08 -1.78422e+09 -2.3668e+09 -8.24457e+09)
(-3.83078e+09 -4.63639e+08 -1.97812e+09 -2.13025e+09 -2.71199e+09 -9.09812e+09)
(-3.60056e+09 -7.81555e+08 -3.0745e+09 -1.04233e+09 -2.44465e+09 -1.01683e+10)
(-3.63353e+09 -4.27146e+08 -2.77366e+09 6.28068e+07 -1.77087e+09 -1.23618e+10)
(-3.83489e+09 2.84359e+08 -1.44008e+09 1.6417e+08 -1.50589e+09 -1.33672e+10)
(-3.63652e+09 6.70978e+08 -7.60304e+08 -5.38892e+08 -1.38408e+09 -1.16097e+10)
(-3.0363e+09 4.94729e+08 -9.32927e+08 -8.51496e+08 -7.79627e+08 -9.38731e+09)
(-1.05287e+09 6.99638e+07 -8.30403e+08 3.59742e+08 -1.09014e+07 -4.75836e+09)
(1.65934e+09 -9.94789e+07 -1.78804e+07 3.01247e+09 2.62095e+08 1.74603e+09)
(2.38544e+09 2.35229e+08 1.89694e+08 3.66022e+09 1.53299e+08 1.7793e+09)
(-7.03727e+09 5.78132e+08 1.66847e+09 -7.40896e+09 -4.4368e+08 -3.43717e+10)
(-5.01755e+09 -8.02807e+08 -5.41786e+08 -3.03734e+09 9.71626e+08 -2.9557e+10)
(-4.64334e+09 -3.42993e+08 3.34938e+09 -3.11224e+09 3.08026e+09 -1.56041e+10)
(-5.0143e+09 6.01471e+07 5.48997e+09 -2.85147e+09 1.99619e+09 -1.44279e+10)
(-5.2661e+09 1.78545e+08 5.952e+09 -3.03172e+09 -1.18463e+08 -1.29179e+10)
(-5.28456e+09 -3.44241e+07 3.88267e+09 -3.3322e+09 -1.67801e+09 -1.08711e+10)
(-5.21412e+09 -2.94938e+08 8.04213e+08 -3.22359e+09 -1.41963e+09 -1.08918e+10)
(-5.10708e+09 -3.79092e+08 -9.33629e+08 -2.85569e+09 5.54529e+08 -1.28485e+10)
(-5.06782e+09 -1.86152e+08 -2.05723e+08 -2.56273e+09 2.24597e+09 -1.4881e+10)
(-4.50193e+09 1.8187e+08 1.65523e+09 -2.21344e+09 2.45783e+09 -1.37687e+10)
(-4.1536e+09 3.43148e+08 2.82604e+09 -2.29817e+09 1.63653e+09 -1.15871e+10)
(-3.72108e+09 1.80717e+08 2.5641e+09 -2.20543e+09 1.04199e+08 -9.00847e+09)
(-3.44217e+09 -5.34068e+07 1.19334e+09 -1.92432e+09 -1.03011e+09 -7.72711e+09)
(-3.17368e+09 -1.51916e+08 -1.94256e+08 -1.49259e+09 -1.17685e+09 -7.54101e+09)
(-3.23205e+09 -8.73735e+07 -9.29965e+08 -1.57444e+09 -8.06118e+08 -8.24104e+09)
(-3.26739e+09 -2.26129e+07 -1.20782e+09 -1.87701e+09 1.86254e+08 -8.60536e+09)
(-3.51107e+09 -5.36835e+07 -1.13807e+09 -2.14634e+09 9.55073e+08 -9.7076e+09)
(-3.7675e+09 -3.09741e+07 -4.26572e+08 -2.08238e+09 1.14981e+09 -1.09558e+10)
(-3.60176e+09 9.72713e+07 5.02075e+08 -1.76865e+09 1.03544e+09 -1.03823e+10)
(-3.86263e+09 1.71001e+08 7.48218e+08 -2.05899e+09 -3.01694e+08 -9.86285e+09)
(-4.14996e+09 3.61576e+07 -3.09912e+08 -2.50329e+09 -1.5379e+09 -9.23226e+09)
(-4.69744e+09 -2.4449e+08 -2.30769e+09 -2.89473e+09 -1.79686e+09 -1.0462e+10)
(-5.3462e+09 -3.57428e+08 -3.62524e+09 -2.94992e+09 -9.79761e+08 -1.3719e+10)
(-6.22702e+09 -1.51396e+08 -3.06352e+09 -3.12232e+09 3.59645e+08 -1.78779e+10)
(-6.54058e+09 1.74315e+08 -1.27038e+09 -3.2285e+09 8.51589e+08 -1.90232e+10)
(-5.79111e+09 3.62858e+08 -3.42973e+08 -3.01757e+09 5.03435e+08 -1.59488e+10)
(-4.55124e+09 2.78863e+08 -6.46224e+08 -2.53082e+09 5.60283e+08 -1.20985e+10)
(-2.4007e+09 1.59599e+07 -8.32399e+08 -1.08608e+09 9.04887e+08 -7.22337e+09)
(2.09818e+08 -9.07906e+07 -1.20516e+08 1.33403e+09 1.00032e+09 -1.32378e+09)
(1.09087e+09 3.04167e+08 4.20936e+08 1.8571e+09 9.75391e+08 -1.45754e+09)
(-7.14855e+09 5.5185e+08 2.18774e+09 -8.71161e+09 2.21352e+09 -3.50697e+10)
(-5.62929e+09 -5.84536e+08 -1.29879e+09 -5.6033e+09 4.20499e+09 -3.2078e+10)
(-6.38906e+09 -4.63108e+08 2.85127e+09 -5.7883e+09 3.95032e+09 -1.97301e+10)
(-6.47799e+09 -1.87134e+08 5.486e+09 -5.22232e+09 2.91705e+09 -1.7112e+10)
(-6.00068e+09 -1.66847e+08 5.98344e+09 -4.3367e+09 8.03285e+08 -1.37782e+10)
(-5.52882e+09 -1.70424e+08 3.73521e+09 -3.76295e+09 -9.71173e+08 -1.07994e+10)
(-5.54225e+09 -1.05745e+08 4.82017e+08 -3.7781e+09 -6.72458e+08 -1.10754e+10)
(-5.98726e+09 -5.27188e+07 -1.29488e+09 -4.30801e+09 1.55582e+09 -1.42405e+10)
(-6.52787e+09 -2.6331e+07 -3.93924e+08 -4.90527e+09 3.45069e+09 -1.7536e+10)
(-6.06872e+09 4.83756e+07 1.75325e+09 -4.59763e+09 3.61022e+09 -1.66996e+10)
(-5.23418e+09 6.6236e+07 3.08144e+09 -3.92831e+09 2.48954e+09 -1.3407e+10)
(-4.22929e+09 -1.61762e+07 2.74307e+09 -2.98547e+09 7.29214e+08 -9.58441e+09)
(-3.68894e+09 -7.84752e+07 1.2062e+09 -2.3591e+09 -4.21974e+08 -7.79596e+09)
(-3.487e+09 -7.98216e+07 -2.96771e+08 -2.12588e+09 -5.02674e+08 -7.76398e+09)
(-3.76592e+09 -1.26519e+07 -1.05207e+09 -2.49903e+09 -1.22965e+08 -8.99495e+09)
(-4.00034e+09 5.13385e+07 -1.29099e+09 -3.00091e+09 7.71795e+08 -9.82624e+09)
(-4.40673e+09 4.24072e+07 -1.17008e+09 -3.4841e+09 1.5717e+09 -1.12471e+10)
(-4.77601e+09 1.38936e+07 -4.02713e+08 -3.67252e+09 1.94147e+09 -1.26782e+10)
(-4.5975e+09 1.09669e+06 6.29592e+08 -3.38291e+09 1.83552e+09 -1.20523e+10)
(-4.51146e+09 -9.7538e+06 9.25945e+08 -3.14373e+09 4.26195e+08 -1.0757e+10)
(-4.45402e+09 -3.28319e+07 -2.54743e+08 -3.01269e+09 -9.1225e+08 -9.36531e+09)
(-5.05634e+09 -6.24336e+07 -2.44161e+09 -3.4547e+09 -1.05108e+09 -1.07349e+10)
(-6.20164e+09 -2.7901e+07 -3.82491e+09 -4.33836e+09 1.37535e+08 -1.50256e+10)
(-7.51254e+09 5.42335e+07 -3.13994e+09 -5.39091e+09 1.8627e+09 -1.99291e+10)
(-7.86062e+09 8.89915e+07 -1.19422e+09 -5.64742e+09 2.47266e+09 -2.10144e+10)
(-6.84127e+09 1.18653e+08 -1.76935e+08 -4.82654e+09 1.87014e+09 -1.74594e+10)
(-5.26086e+09 9.27883e+07 -5.26111e+08 -3.73986e+09 1.50652e+09 -1.29127e+10)
(-3.05842e+09 -4.59787e+07 -8.55441e+08 -2.12635e+09 1.51458e+09 -8.04438e+09)
(-5.49877e+08 -1.03367e+08 -2.27267e+08 9.61586e+07 1.43355e+09 -2.62612e+09)
(4.34353e+08 3.10821e+08 5.34074e+08 4.74512e+08 1.45835e+09 -2.8391e+09)
(-6.71528e+09 4.59451e+08 2.5096e+09 -9.52486e+09 4.0375e+09 -3.29337e+10)
(-5.48775e+09 -3.73837e+08 -1.63665e+09 -7.0862e+09 6.42883e+09 -3.05615e+10)
(-7.14851e+09 -5.31759e+08 2.45501e+09 -7.47844e+09 4.35041e+09 -2.09814e+10)
(-7.07391e+09 -3.7294e+08 5.25557e+09 -6.71e+09 3.26916e+09 -1.77004e+10)
(-6.20624e+09 -3.98883e+08 5.72149e+09 -5.17496e+09 1.27126e+09 -1.3538e+10)
(-5.49925e+09 -2.54513e+08 3.48602e+09 -4.06755e+09 -4.90431e+08 -1.03206e+10)
(-5.56571e+09 2.7627e+07 3.21816e+08 -4.17684e+09 -1.68364e+08 -1.073e+10)
(-6.28416e+09 1.79119e+08 -1.38142e+09 -5.28963e+09 2.11544e+09 -1.42688e+10)
(-7.12339e+09 9.56004e+07 -4.37568e+08 -6.43782e+09 4.07218e+09 -1.80406e+10)
(-6.76875e+09 -3.75123e+07 1.75583e+09 -6.17975e+09 4.1972e+09 -1.74695e+10)
(-5.68473e+09 -1.24655e+08 3.11355e+09 -4.99475e+09 2.93344e+09 -1.37749e+10)
(-4.37683e+09 -1.52195e+08 2.76032e+09 -3.47292e+09 1.09498e+09 -9.4599e+09)
(-3.65603e+09 -1.00146e+08 1.19045e+09 -2.61168e+09 -3.42299e+07 -7.32826e+09)
(-3.49345e+09 -3.06732e+07 -3.41392e+08 -2.50656e+09 -1.03488e+08 -7.35691e+09)
(-3.89778e+09 4.33619e+07 -1.09233e+09 -3.06851e+09 2.67909e+08 -8.86172e+09)
(-4.26447e+09 1.05695e+08 -1.29303e+09 -3.72162e+09 1.05114e+09 -9.98176e+09)
(-4.75262e+09 1.1046e+08 -1.12791e+09 -4.34057e+09 1.84464e+09 -1.15116e+10)
(-5.15317e+09 4.20686e+07 -3.57502e+08 -4.66789e+09 2.32103e+09 -1.29073e+10)
(-4.97571e+09 -6.62425e+07 6.67002e+08 -4.39707e+09 2.19891e+09 -1.22678e+10)
(-4.69922e+09 -1.30991e+08 9.49071e+08 -3.80257e+09 8.28132e+08 -1.06589e+10)
(-4.46144e+09 -7.57139e+07 -2.52463e+08 -3.3038e+09 -5.06795e+08 -8.99364e+09)
(-5.04596e+09 6.48504e+07 -2.43532e+09 -3.79354e+09 -5.55144e+08 -1.02863e+10)
(-6.41289e+09 1.94738e+08 -3.78345e+09 -5.21226e+09 8.19954e+08 -1.48407e+10)
(-7.87115e+09 1.86893e+08 -3.07594e+09 -6.7853e+09 2.69747e+09 -1.97413e+10)
(-8.21514e+09 3.08174e+07 -1.18088e+09 -7.13132e+09 3.33605e+09 -2.0698e+10)
(-7.1114e+09 -4.82699e+07 -1.84437e+08 -5.96919e+09 2.64076e+09 -1.71565e+10)
(-5.4162e+09 -4.68656e+07 -5.32055e+08 -4.48079e+09 2.02901e+09 -1.25627e+10)
(-3.23928e+09 -1.08923e+08 -9.11933e+08 -2.7696e+09 1.79431e+09 -7.84644e+09)
(-8.5329e+08 -1.34143e+08 -3.59392e+08 -7.17007e+08 1.54296e+09 -2.86352e+09)
(1.81816e+08 2.58909e+08 5.13745e+08 -4.82667e+08 1.57024e+09 -3.07369e+09)
(-5.98535e+09 3.2245e+08 2.62191e+09 -9.89612e+09 4.89118e+09 -2.91906e+10)
(-4.84597e+09 -2.01084e+08 -1.63597e+09 -7.63018e+09 7.63122e+09 -2.64414e+10)
(-7.24368e+09 -5.57668e+08 2.17145e+09 -8.32301e+09 4.31044e+09 -2.03806e+10)
(-7.12312e+09 -4.9155e+08 4.88202e+09 -7.47436e+09 3.16577e+09 -1.70981e+10)
(-6.10639e+09 -5.3088e+08 5.27715e+09 -5.63034e+09 1.36515e+09 -1.27916e+10)
(-5.31078e+09 -2.96475e+08 3.1824e+09 -4.26733e+09 -2.35013e+08 -9.66777e+09)
(-5.41291e+09 1.0804e+08 2.66068e+08 -4.4493e+09 9.03082e+07 -1.0142e+10)
(-6.23818e+09 3.22798e+08 -1.28391e+09 -5.88697e+09 2.26525e+09 -1.36082e+10)
(-7.17083e+09 1.81802e+08 -3.75224e+08 -7.31288e+09 4.17404e+09 -1.73166e+10)
(-6.90816e+09 -7.62785e+07 1.71192e+09 -7.09153e+09 4.28556e+09 -1.69802e+10)
(-5.72365e+09 -2.29659e+08 3.01396e+09 -5.58654e+09 3.02498e+09 -1.32921e+10)
(-4.2938e+09 -2.32263e+08 2.6719e+09 -3.71301e+09 1.24975e+09 -8.94698e+09)
(-3.46516e+09 -1.17383e+08 1.15086e+09 -2.70123e+09 1.55399e+08 -6.63629e+09)
(-3.33039e+09 -439946 -3.45551e+08 -2.67524e+09 6.62957e+07 -6.69041e+09)
(-3.78371e+09 7.87087e+07 -1.07314e+09 -3.34388e+09 4.11429e+08 -8.26611e+09)
(-4.22536e+09 1.38631e+08 -1.23823e+09 -4.09798e+09 1.06387e+09 -9.52907e+09)
(-4.73626e+09 1.53791e+08 -1.03754e+09 -4.78462e+09 1.81724e+09 -1.10257e+10)
(-5.12218e+09 5.94057e+07 -3.02688e+08 -5.16417e+09 2.35409e+09 -1.22804e+10)
(-4.97005e+09 -1.04014e+08 6.47699e+08 -4.90446e+09 2.21431e+09 -1.1708e+10)
(-4.59123e+09 -1.97745e+08 8.79792e+08 -4.10402e+09 9.66745e+08 -1.00091e+10)
(-4.28093e+09 -1.02443e+08 -2.85903e+08 -3.40867e+09 -2.80836e+08 -8.35562e+09)
(-4.81186e+09 1.34461e+08 -2.34589e+09 -3.9327e+09 -3.02796e+08 -9.47788e+09)
(-6.22035e+09 3.19944e+08 -3.59569e+09 -5.65101e+09 1.09467e+09 -1.38324e+10)
(-7.65017e+09 2.58111e+08 -2.93015e+09 -7.47076e+09 2.94937e+09 -1.83098e+10)
(-7.97735e+09 -2.67918e+06 -1.20477e+09 -7.85363e+09 3.56273e+09 -1.91467e+10)
(-6.90509e+09 -1.43405e+08 -2.94795e+08 -6.54799e+09 2.88221e+09 -1.58945e+10)
(-5.22772e+09 -1.39431e+08 -6.22911e+08 -4.83687e+09 2.19433e+09 -1.15772e+10)
(-3.12994e+09 -1.68045e+08 -1.0092e+09 -3.089e+09 1.78926e+09 -7.10833e+09)
(-9.01067e+08 -1.76361e+08 -5.29525e+08 -1.19396e+09 1.38981e+09 -2.57281e+09)
(1.33704e+08 1.60377e+08 3.60098e+08 -1.0883e+09 1.37059e+09 -2.735e+09)
(-5.18601e+09 1.6427e+08 2.52806e+09 -9.92486e+09 4.83848e+09 -2.49914e+10)
(-3.92343e+09 -7.80468e+07 -1.39766e+09 -7.45598e+09 7.90745e+09 -2.09466e+10)
(-6.94415e+09 -5.50509e+08 1.98888e+09 -8.52673e+09 3.93092e+09 -1.87578e+10)
(-6.87779e+09 -5.50479e+08 4.43472e+09 -7.71081e+09 2.75177e+09 -1.59608e+10)
(-5.85916e+09 -5.88157e+08 4.73772e+09 -5.81912e+09 1.19902e+09 -1.18945e+10)
(-5.06279e+09 -3.09593e+08 2.8567e+09 -4.40279e+09 -1.7743e+08 -9.02435e+09)
(-5.19374e+09 1.4641e+08 2.71318e+08 -4.64238e+09 1.32257e+08 -9.53703e+09)
(-6.03295e+09 3.94754e+08 -1.07563e+09 -6.21401e+09 2.09034e+09 -1.27263e+10)
(-6.92888e+09 2.37672e+08 -2.4002e+08 -7.71752e+09 3.86577e+09 -1.60588e+10)
(-6.73527e+09 -7.54189e+07 1.66016e+09 -7.51021e+09 3.99427e+09 -1.58999e+10)
(-5.53269e+09 -2.62107e+08 2.85801e+09 -5.82857e+09 2.85146e+09 -1.24081e+10)
(-4.07869e+09 -2.63592e+08 2.52781e+09 -3.76883e+09 1.25069e+09 -8.24696e+09)
(-3.21176e+09 -1.27462e+08 1.0941e+09 -2.66954e+09 2.07123e+08 -5.93477e+09)
(-3.0988e+09 1.42521e+07 -3.24325e+08 -2.69168e+09 8.07323e+07 -6.00144e+09)
(-3.54736e+09 9.36883e+07 -1.01799e+09 -3.40799e+09 3.77952e+08 -7.50732e+09)
(-4.02697e+09 1.51671e+08 -1.15045e+09 -4.21664e+09 8.87001e+08 -8.83235e+09)
(-4.52129e+09 1.77185e+08 -9.18399e+08 -4.91682e+09 1.57411e+09 -1.02109e+10)
(-4.86052e+09 7.17326e+07 -2.41391e+08 -5.29075e+09 2.13948e+09 -1.12536e+10)
(-4.74663e+09 -1.17451e+08 5.98166e+08 -5.04243e+09 2.00247e+09 -1.07887e+10)
(-4.32091e+09 -2.23361e+08 7.6394e+08 -4.14356e+09 9.21513e+08 -9.11939e+09)
(-3.99445e+09 -1.19387e+08 -3.43345e+08 -3.37458e+09 -1.86584e+08 -7.59882e+09)
(-4.47519e+09 1.54233e+08 -2.22254e+09 -3.92081e+09 -2.39328e+08 -8.58114e+09)
(-5.82347e+09 3.6508e+08 -3.33772e+09 -5.76977e+09 1.04833e+09 -1.25102e+10)
(-7.13096e+09 2.82605e+08 -2.7457e+09 -7.65196e+09 2.75052e+09 -1.63738e+10)
(-7.43924e+09 -1.48833e+07 -1.24528e+09 -8.03389e+09 3.31999e+09 -1.71193e+10)
(-6.46643e+09 -1.81872e+08 -4.52613e+08 -6.70645e+09 2.725e+09 -1.43007e+10)
(-4.85857e+09 -1.92822e+08 -7.64824e+08 -4.91201e+09 2.08438e+09 -1.0325e+10)
(-2.88503e+09 -2.20311e+08 -1.14894e+09 -3.18043e+09 1.56882e+09 -6.19192e+09)
(-8.37686e+08 -2.24243e+08 -7.41063e+08 -1.44785e+09 1.05216e+09 -2.09466e+09)
(1.42912e+08 4.00757e+07 8.63317e+07 -1.44593e+09 9.47719e+08 -2.22232e+09)
(-4.4987e+09 1.14776e+07 2.25434e+09 -9.74312e+09 4.07912e+09 -2.12437e+10)
(-2.901e+09 -562993 -1.02466e+09 -6.81067e+09 7.41413e+09 -1.50641e+10)
(-6.4526e+09 -5.1946e+08 1.8796e+09 -8.30226e+09 3.3312e+09 -1.67209e+10)
(-6.51557e+09 -5.66133e+08 3.96319e+09 -7.6175e+09 2.17154e+09 -1.47029e+10)
(-5.56804e+09 -5.96138e+08 4.16741e+09 -5.8532e+09 8.64028e+08 -1.10387e+10)
(-4.8322e+09 -3.04976e+08 2.52917e+09 -4.52192e+09 -2.83457e+08 -8.51899e+09)
(-4.99301e+09 1.55497e+08 3.07302e+08 -4.80839e+09 -3.18211e+06 -9.07393e+09)
(-5.79921e+09 4.13676e+08 -8.13844e+08 -6.38497e+09 1.68296e+09 -1.19207e+10)
(-6.59262e+09 2.69556e+08 -5.83197e+07 -7.82975e+09 3.26617e+09 -1.47559e+10)
(-6.43411e+09 -4.56057e+07 1.6281e+09 -7.61402e+09 3.44533e+09 -1.4681e+10)
(-5.24856e+09 -2.40919e+08 2.69935e+09 -5.84975e+09 2.49837e+09 -1.14296e+10)
(-3.81278e+09 -2.54216e+08 2.37013e+09 -3.71083e+09 1.14619e+09 -7.5117e+09)
(-2.95996e+09 -1.27712e+08 1.02985e+09 -2.56849e+09 1.84654e+08 -5.33647e+09)
(-2.86383e+09 1.61483e+07 -2.91227e+08 -2.62169e+09 1.25451e+07 -5.40871e+09)
(-3.2764e+09 9.12977e+07 -9.47507e+08 -3.34649e+09 2.36065e+08 -6.76953e+09)
(-3.77443e+09 1.4936e+08 -1.04839e+09 -4.17333e+09 6.03716e+08 -8.12717e+09)
(-4.22865e+09 1.8523e+08 -7.84347e+08 -4.84779e+09 1.20771e+09 -9.34548e+09)
(-4.49728e+09 8.12979e+07 -1.73305e+08 -5.17939e+09 1.77262e+09 -1.01221e+10)
(-4.41742e+09 -1.13336e+08 5.37373e+08 -4.94028e+09 1.65816e+09 -9.75335e+09)
(-3.98582e+09 -2.22102e+08 6.29852e+08 -4.01892e+09 7.63384e+08 -8.18939e+09)
(-3.67034e+09 -1.29804e+08 -4.16344e+08 -3.25682e+09 -1.84823e+08 -6.83544e+09)
(-4.12317e+09 1.37091e+08 -2.10142e+09 -3.81933e+09 -2.99311e+08 -7.76168e+09)
(-5.36918e+09 3.49503e+08 -3.06774e+09 -5.6907e+09 7.82175e+08 -1.12131e+10)
(-6.52292e+09 2.73464e+08 -2.55313e+09 -7.52391e+09 2.23855e+09 -1.44436e+10)
(-6.80885e+09 -9.16132e+06 -1.28566e+09 -7.88411e+09 2.76816e+09 -1.51033e+10)
(-5.96767e+09 -1.80421e+08 -6.20317e+08 -6.60347e+09 2.31664e+09 -1.27603e+10)
(-4.4415e+09 -2.18342e+08 -9.33644e+08 -4.8084e+09 1.77838e+09 -9.0926e+09)
(-2.61777e+09 -2.65432e+08 -1.32843e+09 -3.1466e+09 1.20908e+09 -5.33079e+09)
(-7.58972e+08 -2.73891e+08 -9.90831e+08 -1.58839e+09 5.93693e+08 -1.64174e+09)
(1.16755e+08 -7.22005e+07 -2.6061e+08 -1.66752e+09 3.87095e+08 -1.79808e+09)
(-4.03087e+09 -9.89551e+07 1.87593e+09 -9.48164e+09 2.87603e+09 -1.85081e+10)
(-1.91996e+09 4.06268e+07 -6.08332e+08 -5.92563e+09 6.32528e+09 -9.52704e+09)
(-5.90995e+09 -4.73703e+08 1.80572e+09 -7.83617e+09 2.61719e+09 -1.46733e+10)
(-6.13912e+09 -5.56894e+08 3.4947e+09 -7.35582e+09 1.5267e+09 -1.35342e+10)
(-5.3089e+09 -5.75247e+08 3.60737e+09 -5.83039e+09 4.18851e+08 -1.03523e+10)
(-4.67598e+09 -2.89778e+08 2.2133e+09 -4.66814e+09 -5.23579e+08 -8.24208e+09)
(-4.87129e+09 1.46602e+08 3.54388e+08 -4.99494e+09 -2.78218e+08 -8.85606e+09)
(-5.62344e+09 3.98016e+08 -5.39348e+08 -6.49929e+09 1.12238e+09 -1.13622e+10)
(-6.29522e+09 2.84399e+08 1.4999e+08 -7.8078e+09 2.49126e+09 -1.37063e+10)
(-6.13131e+09 1.80213e+06 1.63273e+09 -7.55682e+09 2.73999e+09 -1.36057e+10)
(-4.96748e+09 -1.84617e+08 2.57278e+09 -5.76236e+09 2.03385e+09 -1.05545e+10)
(-3.55867e+09 -2.13622e+08 2.23062e+09 -3.60469e+09 9.71641e+08 -6.8519e+09)
(-2.74754e+09 -1.17313e+08 9.68858e+08 -2.44801e+09 1.34983e+08 -4.88101e+09)
(-2.66207e+09 7.75236e+06 -2.57087e+08 -2.5198e+09 -8.85175e+07 -4.95517e+09)
(-3.02781e+09 7.65702e+07 -8.76689e+08 -3.2356e+09 3.61593e+07 -6.15211e+09)
(-3.5341e+09 1.37417e+08 -9.44131e+08 -4.05604e+09 2.76551e+08 -7.53548e+09)
(-3.93637e+09 1.81617e+08 -6.45933e+08 -4.67901e+09 7.89474e+08 -8.57986e+09)
(-4.1209e+09 8.81683e+07 -1.00341e+08 -4.94632e+09 1.32644e+09 -9.06273e+09)
(-4.06827e+09 -9.75515e+07 4.77849e+08 -4.70849e+09 1.25143e+09 -8.77421e+09)