/*--------------------------------*- C++ -*----------------------------------*\
| =========                 |                                                 |
| \\      /  F ield         | OpenFOAM: The Open Source CFD Toolbox           |
|  \\    /   O peration     | Version:  2106                                  |
|   \\  /    A nd           | Website:  www.openfoam.com                      |
|    \\/     M anipulation  |                                                 |
\*---------------------------------------------------------------------------*/
FoamFile
{
    version     2.0;
    format      ascii;
    arch        "LSB;label=32;scalar=64";
    class       volVectorField;
    location    "245";
    object      D;
}
// * * * * * * * * * * * * * * * * * * * * * * * * * * * * * * * * * * * * * //

dimensions      [0 1 0 0 0 0 0];

internalField   nonuniform List<vector> 
9000
(
(1.14135e-05 2.08684e-05 3.14704e-06)
(1.32771e-06 2.19715e-05 9.02037e-08)
(2.19693e-07 2.33263e-05 1.24039e-06)
(3.87415e-08 2.36292e-05 1.45412e-06)
(4.60772e-09 2.36388e-05 1.45767e-06)
(1.70132e-09 2.36061e-05 1.43742e-06)
(1.56293e-09 2.36274e-05 1.45147e-06)
(3.27831e-10 2.36051e-05 1.43706e-06)
(1.72233e-09 2.36052e-05 1.43721e-06)
(-4.2956e-11 2.36314e-05 1.45375e-06)
(-2.024e-09 2.3617e-05 1.44328e-06)
(1.66584e-09 2.3593e-05 1.42805e-06)
(2.32578e-09 2.3629e-05 1.45251e-06)
(-1.20368e-09 2.36281e-05 1.45137e-06)
(2.73495e-10 2.36202e-05 1.445e-06)
(1.11219e-09 2.36331e-05 1.45476e-06)
(-1.49923e-09 2.3628e-05 1.45127e-06)
(1.79418e-11 2.36206e-05 1.44515e-06)
(-1.26468e-09 2.36301e-05 1.45317e-06)
(-1.28377e-09 2.35918e-05 1.42722e-06)
(1.75783e-09 2.36043e-05 1.43681e-06)
(2.28135e-10 2.36306e-05 1.45315e-06)
(-1.91964e-09 2.36316e-05 1.45372e-06)
(-1.70868e-09 2.36067e-05 1.43798e-06)
(-1.78514e-09 2.36272e-05 1.45117e-06)
(-7.0038e-09 2.36145e-05 1.4423e-06)
(-3.82806e-08 2.36119e-05 1.44203e-06)
(-2.18085e-07 2.33197e-05 1.23626e-06)
(-1.32742e-06 2.19713e-05 9.01422e-08)
(-1.14137e-05 2.08679e-05 3.14689e-06)
(1.10862e-05 1.25739e-05 -5.84142e-06)
(1.22521e-06 1.31968e-05 -9.25802e-06)
(1.43505e-07 1.40158e-05 -8.68576e-06)
(2.10622e-08 1.42205e-05 -8.60487e-06)
(4.89555e-09 1.4227e-05 -8.60554e-06)
(2.35082e-09 1.42108e-05 -8.6034e-06)
(1.68097e-09 1.42179e-05 -8.60684e-06)
(1.00923e-09 1.42109e-05 -8.60262e-06)
(7.97357e-10 1.42108e-05 -8.60268e-06)
(5.17859e-10 1.42209e-05 -8.60641e-06)
(2.27051e-10 1.4218e-05 -8.60406e-06)
(3.30306e-10 1.42094e-05 -8.6e-06)
(1.77711e-10 1.42186e-05 -8.60677e-06)
(-1.24819e-10 1.42163e-05 -8.60589e-06)
(3.00284e-11 1.42202e-05 -8.604e-06)
(1.33008e-11 1.4222e-05 -8.60625e-06)
(-1.75627e-10 1.42164e-05 -8.60589e-06)
(2.8753e-11 1.42204e-05 -8.60404e-06)
(-1.3878e-10 1.422e-05 -8.60628e-06)
(-3.84919e-10 1.42088e-05 -8.60012e-06)
(-5.65029e-10 1.42104e-05 -8.60239e-06)
(-8.20406e-10 1.42196e-05 -8.60709e-06)
(-1.11125e-09 1.42211e-05 -8.60653e-06)
(-1.47346e-09 1.42116e-05 -8.60281e-06)
(-2.13462e-09 1.42174e-05 -8.60728e-06)
(-5.00825e-09 1.42183e-05 -8.6015e-06)
(-2.10617e-08 1.42157e-05 -8.60246e-06)
(-1.43572e-07 1.4009e-05 -8.68532e-06)
(-1.22527e-06 1.31966e-05 -9.25793e-06)
(-1.10864e-05 1.25732e-05 -5.84156e-06)
(1.11563e-05 7.78407e-06 -7.40692e-06)
(1.22103e-06 8.20595e-06 -1.09331e-05)
(1.30393e-07 8.75386e-06 -1.04556e-05)
(1.55099e-08 8.90102e-06 -1.04007e-05)
(4.95252e-09 8.90732e-06 -1.04025e-05)
(2.56625e-09 8.90261e-06 -1.03997e-05)
(1.73233e-09 8.90025e-06 -1.0403e-05)
(1.42089e-09 8.90487e-06 -1.03995e-05)
(2.69307e-10 8.9044e-06 -1.03999e-05)
(3.97994e-10 8.90275e-06 -1.04026e-05)
(1.07479e-09 8.90052e-06 -1.04018e-05)
(-1.93398e-11 8.90342e-06 -1.03986e-05)
(-8.66183e-10 8.89973e-06 -1.04018e-05)
(1.07388e-10 8.90271e-06 -1.04009e-05)
(1.52022e-10 8.90223e-06 -1.0402e-05)
(-4.49637e-10 8.90355e-06 -1.04027e-05)
(1.57547e-10 8.90283e-06 -1.04009e-05)
(2.80721e-10 8.90232e-06 -1.0402e-05)
(4.64843e-10 8.90226e-06 -1.04024e-05)
(1.28372e-10 8.90336e-06 -1.03986e-05)
(-1.44574e-09 8.90456e-06 -1.03992e-05)
(-1.38994e-09 8.90019e-06 -1.04023e-05)
(-6.13841e-10 8.90304e-06 -1.04027e-05)
(-1.40067e-09 8.90454e-06 -1.04001e-05)
(-2.22411e-09 8.89842e-06 -1.04024e-05)
(-4.164e-09 8.91001e-06 -1.03992e-05)
(-1.60946e-08 8.89773e-06 -1.03994e-05)
(-1.30915e-07 8.75224e-06 -1.04535e-05)
(-1.221e-06 8.20587e-06 -1.09329e-05)
(-1.11563e-05 7.78293e-06 -7.40723e-06)
(1.15412e-05 4.89514e-06 -7.09458e-06)
(1.26334e-06 5.16415e-06 -1.07436e-05)
(1.43155e-07 5.56211e-06 -1.02383e-05)
(1.66343e-08 5.66873e-06 -1.01797e-05)
(4.42965e-09 5.67474e-06 -1.01818e-05)
(2.52412e-09 5.67187e-06 -1.0182e-05)
(1.87806e-09 5.66858e-06 -1.01818e-05)
(1.2279e-09 5.67285e-06 -1.01829e-05)
(4.4245e-10 5.67141e-06 -1.01826e-05)
(5.97888e-10 5.67169e-06 -1.01819e-05)
(8.88257e-10 5.66998e-06 -1.01818e-05)
(-1.95193e-10 5.67168e-06 -1.01825e-05)
(-5.55692e-10 5.67157e-06 -1.01809e-05)
(2.81994e-10 5.67633e-06 -1.01815e-05)
(1.90451e-11 5.67168e-06 -1.01817e-05)
(-3.22524e-10 5.67242e-06 -1.01819e-05)
(1.67376e-10 5.67641e-06 -1.01816e-05)
(1.60197e-10 5.67171e-06 -1.01816e-05)
(2.6711e-10 5.6714e-06 -1.01817e-05)
(-5.68182e-11 5.67186e-06 -1.01825e-05)
(-1.40548e-09 5.6727e-06 -1.01826e-05)
(-1.18658e-09 5.67152e-06 -1.01814e-05)
(-6.18378e-10 5.67215e-06 -1.01819e-05)
(-1.59894e-09 5.67123e-06 -1.01827e-05)
(-2.18982e-09 5.66906e-06 -1.01811e-05)
(-3.78734e-09 5.67623e-06 -1.01824e-05)
(-1.69197e-08 5.66655e-06 -1.01792e-05)
(-1.43594e-07 5.56535e-06 -1.02377e-05)
(-1.26347e-06 5.16418e-06 -1.07434e-05)
(-1.1541e-05 4.89313e-06 -7.09417e-06)
(1.20155e-05 3.09201e-06 -6.68223e-06)
(1.3221e-06 3.23892e-06 -1.04727e-05)
(1.61488e-07 3.53609e-06 -9.93176e-06)
(1.98207e-08 3.61358e-06 -9.8657e-06)
(4.26663e-09 3.61846e-06 -9.86736e-06)
(2.24347e-09 3.6212e-06 -9.86867e-06)
(1.87422e-09 3.6153e-06 -9.86783e-06)
(1.09598e-09 3.618e-06 -9.86874e-06)
(6.05723e-10 3.61821e-06 -9.86853e-06)
(8.1365e-10 3.617e-06 -9.86816e-06)
(6.40005e-10 3.61524e-06 -9.86763e-06)
(-4.71548e-11 3.61688e-06 -9.86868e-06)
(-3.07116e-10 3.61955e-06 -9.86831e-06)
(1.9179e-10 3.62025e-06 -9.86909e-06)
(3.77388e-11 3.61744e-06 -9.86795e-06)
(-2.81206e-10 3.61756e-06 -9.86825e-06)
(1.15524e-10 3.62025e-06 -9.86918e-06)
(1.4e-10 3.61745e-06 -9.86792e-06)
(4.29824e-11 3.61674e-06 -9.86807e-06)
(-2.3086e-10 3.61724e-06 -9.8686e-06)
(-1.04919e-09 3.6178e-06 -9.86865e-06)
(-9.51765e-10 3.61892e-06 -9.86799e-06)
(-9.76586e-10 3.61773e-06 -9.86806e-06)
(-1.72541e-09 3.61778e-06 -9.86873e-06)
(-1.97962e-09 3.6181e-06 -9.86798e-06)
(-3.84012e-09 3.62002e-06 -9.8681e-06)
(-2.00132e-08 3.61187e-06 -9.86564e-06)
(-1.61773e-07 3.53795e-06 -9.93272e-06)
(-1.32234e-06 3.23898e-06 -1.04726e-05)
(-1.20148e-05 3.09194e-06 -6.68186e-06)
(1.24297e-05 1.95197e-06 -6.4514e-06)
(1.37977e-06 2.01854e-06 -1.03636e-05)
(1.7816e-07 2.23555e-06 -9.79719e-06)
(2.32371e-08 2.29486e-06 -9.7266e-06)
(4.49194e-09 2.30042e-06 -9.72846e-06)
(2.15485e-09 2.30314e-06 -9.7303e-06)
(1.70813e-09 2.29952e-06 -9.72922e-06)
(1.19076e-09 2.29928e-06 -9.72925e-06)
(6.45368e-10 2.30118e-06 -9.72952e-06)
(5.9869e-10 2.2978e-06 -9.72887e-06)
(4.879e-10 2.29833e-06 -9.72885e-06)
(1.1288e-10 2.29757e-06 -9.72897e-06)
(-1.03407e-10 2.29904e-06 -9.72982e-06)
(2.08235e-10 2.30056e-06 -9.72949e-06)
(1.53766e-11 2.29892e-06 -9.72897e-06)
(-2.21658e-10 2.29817e-06 -9.72892e-06)
(8.96098e-11 2.30054e-06 -9.72954e-06)
(5.97448e-11 2.29892e-06 -9.72895e-06)
(-9.09623e-11 2.29741e-06 -9.72883e-06)
(-2.95967e-10 2.29839e-06 -9.72925e-06)
(-9.73633e-10 2.2987e-06 -9.72938e-06)
(-8.0288e-10 2.30061e-06 -9.72982e-06)
(-8.61328e-10 2.29914e-06 -9.72908e-06)
(-1.809e-09 2.30015e-06 -9.72938e-06)
(-1.98326e-09 2.30091e-06 -9.73013e-06)
(-4.07877e-09 2.30013e-06 -9.72864e-06)
(-2.35109e-08 2.29279e-06 -9.72636e-06)
(-1.78293e-07 2.23657e-06 -9.79751e-06)
(-1.37987e-06 2.0186e-06 -1.03634e-05)
(-1.24289e-05 1.95388e-06 -6.45164e-06)
(1.27336e-05 1.23055e-06 -6.34142e-06)
(1.42762e-06 1.25328e-06 -1.03417e-05)
(1.91534e-07 1.40941e-06 -9.75857e-06)
(2.64621e-08 1.45304e-06 -9.68593e-06)
(4.74997e-09 1.45916e-06 -9.68804e-06)
(1.9517e-09 1.45939e-06 -9.68942e-06)
(1.59117e-09 1.45934e-06 -9.68948e-06)
(1.2112e-09 1.45707e-06 -9.68849e-06)
(5.34161e-10 1.45814e-06 -9.68907e-06)
(6.17922e-10 1.45687e-06 -9.68856e-06)
(4.01222e-10 1.45794e-06 -9.68853e-06)
(-7.00217e-11 1.45645e-06 -9.6886e-06)
(1.52206e-10 1.4568e-06 -9.68871e-06)
(3.44847e-10 1.4578e-06 -9.68847e-06)
(-1.27084e-10 1.45684e-06 -9.68838e-06)
(-1.55775e-10 1.4571e-06 -9.68855e-06)
(1.76485e-10 1.45779e-06 -9.68852e-06)
(-1.48059e-10 1.45684e-06 -9.68835e-06)
(-1.81658e-10 1.45619e-06 -9.68867e-06)
(-2.21111e-10 1.45567e-06 -9.68818e-06)
(-7.37374e-10 1.45566e-06 -9.68846e-06)
(-6.88667e-10 1.45921e-06 -9.68897e-06)
(-1.07221e-09 1.45702e-06 -9.68849e-06)
(-1.83319e-09 1.45827e-06 -9.68921e-06)
(-1.87443e-09 1.45937e-06 -9.68965e-06)
(-4.50907e-09 1.45677e-06 -9.68756e-06)
(-2.66015e-08 1.45202e-06 -9.68611e-06)
(-1.91447e-07 1.40997e-06 -9.75848e-06)
(-1.42769e-06 1.25328e-06 -1.03416e-05)
(-1.27331e-05 1.23177e-06 -6.34211e-06)
(1.29344e-05 7.74896e-07 -6.28617e-06)
(1.4634e-06 7.7777e-07 -1.03443e-05)
(2.01712e-07 8.87804e-07 -9.75064e-06)
(2.87634e-08 9.18787e-07 -9.67683e-06)
(5.02582e-09 9.23374e-07 -9.67916e-06)
(1.99398e-09 9.2359e-07 -9.6797e-06)
(1.48226e-09 9.24718e-07 -9.68036e-06)
(1.07975e-09 9.22259e-07 -9.67942e-06)
(6.14725e-10 9.22813e-07 -9.67961e-06)
(5.9051e-10 9.23349e-07 -9.67961e-06)
(3.3089e-10 9.22786e-07 -9.67974e-06)
(-8.55397e-11 9.22444e-07 -9.67942e-06)
(1.77293e-10 9.23893e-07 -9.67975e-06)
(3.47588e-10 9.22721e-07 -9.67929e-06)
(-6.01429e-11 9.22066e-07 -9.67938e-06)
(-9.93411e-11 9.23512e-07 -9.67957e-06)
(6.22985e-11 9.22701e-07 -9.67935e-06)
(-1.70007e-10 9.22095e-07 -9.6793e-06)
(-3.30773e-10 9.21987e-07 -9.67967e-06)
(-4.15508e-10 9.2189e-07 -9.67943e-06)
(-5.0072e-10 9.21285e-07 -9.67947e-06)
(-4.9405e-10 9.23452e-07 -9.67985e-06)
(-1.01414e-09 9.22255e-07 -9.67945e-06)
(-1.76429e-09 9.24148e-07 -9.67985e-06)
(-2.06934e-09 9.25344e-07 -9.68056e-06)
(-4.81254e-09 9.2263e-07 -9.67872e-06)
(-2.87168e-08 9.18365e-07 -9.67701e-06)
(-2.01617e-07 8.88079e-07 -9.75044e-06)
(-1.46347e-06 7.77719e-07 -1.03443e-05)
(-1.29342e-05 7.75652e-07 -6.28648e-06)
(1.30588e-05 4.87318e-07 -6.25481e-06)
(1.48789e-06 4.83282e-07 -1.03489e-05)
(2.09313e-07 5.57966e-07 -9.74888e-06)
(3.05478e-08 5.80558e-07 -9.67414e-06)
(5.28056e-09 5.83889e-07 -9.6762e-06)
(2.01772e-09 5.84184e-07 -9.67679e-06)
(1.39588e-09 5.84756e-07 -9.67736e-06)
(1.01005e-09 5.83435e-07 -9.67679e-06)
(6.42955e-10 5.83731e-07 -9.67679e-06)
(5.58532e-10 5.84056e-07 -9.67712e-06)
(1.97655e-10 5.83746e-07 -9.67679e-06)
(6.61014e-11 5.84062e-07 -9.67727e-06)
(3.02551e-10 5.85443e-07 -9.67719e-06)
(1.81657e-10 5.83762e-07 -9.67664e-06)
(-3.70332e-11 5.83119e-07 -9.67686e-06)
(-5.00593e-11 5.84184e-07 -9.67707e-06)
(-1.86707e-12 5.83731e-07 -9.6767e-06)
(-3.26554e-10 5.8328e-07 -9.6767e-06)
(-2.60943e-10 5.83152e-07 -9.67733e-06)
(-3.18721e-10 5.84049e-07 -9.67692e-06)
(-5.00654e-10 5.84376e-07 -9.67717e-06)
(-4.44586e-10 5.84091e-07 -9.67681e-06)
(-9.82417e-10 5.83458e-07 -9.67678e-06)
(-1.54986e-09 5.84502e-07 -9.67717e-06)
(-2.00903e-09 5.86191e-07 -9.67749e-06)
(-5.35702e-09 5.84658e-07 -9.67604e-06)
(-3.05791e-08 5.80002e-07 -9.67469e-06)
(-2.0907e-07 5.58053e-07 -9.74867e-06)
(-1.48797e-06 4.83194e-07 -1.03489e-05)
(-1.30588e-05 4.8792e-07 -6.25482e-06)
(1.31329e-05 3.0552e-07 -6.23567e-06)
(1.50372e-06 3.00534e-07 -1.03515e-05)
(2.14842e-07 3.50144e-07 -9.7472e-06)
(3.18992e-08 3.6624e-07 -9.67219e-06)
(5.49289e-09 3.68471e-07 -9.67426e-06)
(2.04612e-09 3.68935e-07 -9.67482e-06)
(1.33486e-09 3.69212e-07 -9.675e-06)
(9.6257e-10 3.68538e-07 -9.67489e-06)
(6.53804e-10 3.68702e-07 -9.67485e-06)
(5.38329e-10 3.68877e-07 -9.67493e-06)
(2.78391e-10 3.68734e-07 -9.67473e-06)
(1.41257e-10 3.69749e-07 -9.67506e-06)
(2.19877e-10 3.69656e-07 -9.67513e-06)
(6.10478e-11 3.68773e-07 -9.67473e-06)
(-2.51286e-11 3.67751e-07 -9.67481e-06)
(1.30314e-11 3.6898e-07 -9.67488e-06)
(-5.11913e-11 3.68753e-07 -9.6748e-06)
(-3.51843e-10 3.68269e-07 -9.67494e-06)
(-2.49518e-10 3.69789e-07 -9.67536e-06)
(-1.8756e-10 3.68243e-07 -9.67502e-06)
(-4.47023e-10 3.69752e-07 -9.67542e-06)
(-5.53149e-10 3.68876e-07 -9.67475e-06)
(-9.62927e-10 3.68572e-07 -9.67485e-06)
(-1.42593e-09 3.69096e-07 -9.67496e-06)
(-1.99127e-09 3.69987e-07 -9.67524e-06)
(-5.67244e-09 3.69125e-07 -9.67424e-06)
(-3.19674e-08 3.66932e-07 -9.67291e-06)
(-2.14566e-07 3.50073e-07 -9.74706e-06)
(-1.50378e-06 3.00426e-07 -1.03515e-05)
(-1.31332e-05 3.06254e-07 -6.23545e-06)
(1.31762e-05 1.8993e-07 -6.22347e-06)
(1.51359e-06 1.86372e-07 -1.03525e-05)
(2.18746e-07 2.18679e-07 -9.74579e-06)
(3.2875e-08 2.29837e-07 -9.67054e-06)
(5.6606e-09 2.3085e-07 -9.67248e-06)
(2.10024e-09 2.31765e-07 -9.6732e-06)
(1.29625e-09 2.31935e-07 -9.67326e-06)
(9.28199e-10 2.316e-07 -9.67328e-06)
(6.59214e-10 2.31698e-07 -9.67325e-06)
(5.23885e-10 2.31796e-07 -9.6732e-06)
(3.01301e-10 2.31688e-07 -9.67309e-06)
(1.8416e-10 2.31999e-07 -9.67357e-06)
(1.93778e-10 2.32207e-07 -9.67319e-06)
(-9.95574e-11 2.31791e-07 -9.67311e-06)
(-1.5773e-11 2.31569e-07 -9.67356e-06)
(1.43212e-10 2.31892e-07 -9.67314e-06)
(-1.1293e-10 2.31768e-07 -9.67317e-06)
(-2.15147e-10 2.30897e-07 -9.67322e-06)
(-3.07699e-10 2.33142e-07 -9.67355e-06)
(-3.10828e-10 2.31785e-07 -9.67356e-06)
(-3.22089e-10 2.31607e-07 -9.67353e-06)
(-5.65751e-10 2.31682e-07 -9.67318e-06)
(-9.42227e-10 2.31636e-07 -9.67323e-06)
(-1.35243e-09 2.31876e-07 -9.67323e-06)
(-1.99564e-09 2.32321e-07 -9.67325e-06)
(-5.78992e-09 2.31733e-07 -9.67243e-06)
(-3.29938e-08 2.30135e-07 -9.67114e-06)
(-2.18564e-07 2.18362e-07 -9.74581e-06)
(-1.51356e-06 1.8626e-07 -1.03525e-05)
(-1.31768e-05 1.91152e-07 -6.22344e-06)
(1.32012e-05 1.17299e-07 -6.21642e-06)
(1.51967e-06 1.14169e-07 -1.03529e-05)
(2.21404e-07 1.34663e-07 -9.74481e-06)
(3.34922e-08 1.4214e-07 -9.66936e-06)
(5.78484e-09 1.43265e-07 -9.67168e-06)
(2.22612e-09 1.43402e-07 -9.67211e-06)
(1.27756e-09 1.43574e-07 -9.6721e-06)
(9.0513e-10 1.43416e-07 -9.67212e-06)
(6.6139e-10 1.4348e-07 -9.67209e-06)
(5.08423e-10 1.43534e-07 -9.67203e-06)
(2.75808e-10 1.43371e-07 -9.67199e-06)
(2.15356e-10 1.43005e-07 -9.67208e-06)
(2.18888e-10 1.43747e-07 -9.67191e-06)
(-3.95162e-11 1.43575e-07 -9.67195e-06)
(-9.43733e-12 1.44021e-07 -9.67233e-06)
(6.70151e-11 1.43614e-07 -9.67195e-06)
(-2.37832e-10 1.43566e-07 -9.67199e-06)
(-1.51927e-10 1.43506e-07 -9.67237e-06)
(-1.063e-10 1.442e-07 -9.67223e-06)
(-4.54088e-10 1.44107e-07 -9.67227e-06)
(-4.14455e-10 1.43825e-07 -9.67237e-06)
(-4.81441e-10 1.43206e-07 -9.67216e-06)
(-9.13694e-10 1.43446e-07 -9.67206e-06)
(-1.30945e-09 1.43527e-07 -9.67205e-06)
(-2.01814e-09 1.43753e-07 -9.672e-06)
(-6.02716e-09 1.43151e-07 -9.67133e-06)
(-3.37854e-08 1.41974e-07 -9.67001e-06)
(-2.21162e-07 1.33853e-07 -9.74471e-06)
(-1.5194e-06 1.14031e-07 -1.03529e-05)
(-1.32022e-05 1.17564e-07 -6.21611e-06)
(1.32158e-05 7.00043e-08 -6.21213e-06)
(1.52297e-06 6.73293e-08 -1.03531e-05)
(2.23123e-07 7.97153e-08 -9.74418e-06)
(3.40737e-08 8.44321e-08 -9.66861e-06)
(5.84181e-09 8.56278e-08 -9.67092e-06)
(2.15287e-09 8.50209e-08 -9.67154e-06)
(1.2775e-09 8.5351e-08 -9.67138e-06)
(8.91001e-10 8.52858e-08 -9.67139e-06)
(6.61524e-10 8.53301e-08 -9.67137e-06)
(4.83739e-10 8.53583e-08 -9.67131e-06)
(1.74276e-10 8.50277e-08 -9.67144e-06)
(2.47398e-10 8.54697e-08 -9.67158e-06)
(3.20297e-10 8.5478e-08 -9.67117e-06)
(-4.97994e-11 8.54016e-08 -9.67123e-06)
(-6.9626e-12 8.49443e-08 -9.67157e-06)
(7.33869e-11 8.53788e-08 -9.67121e-06)
(-1.42256e-10 8.54216e-08 -9.67126e-06)
(-1.23936e-10 8.61692e-08 -9.6714e-06)
(-2.01762e-10 8.56691e-08 -9.67123e-06)
(-3.67251e-10 8.50003e-08 -9.67151e-06)
(-4.53254e-10 8.62896e-08 -9.67132e-06)
(-5.96093e-10 8.454e-08 -9.67135e-06)
(-8.6453e-10 8.5305e-08 -9.67132e-06)
(-1.28631e-09 8.52806e-08 -9.67134e-06)
(-2.06633e-09 8.54217e-08 -9.67128e-06)
(-6.11148e-09 8.44647e-08 -9.67051e-06)
(-3.43642e-08 8.54672e-08 -9.66907e-06)
(-2.22957e-07 7.96924e-08 -9.74439e-06)
(-1.52271e-06 6.71533e-08 -1.03531e-05)
(-1.32168e-05 6.94786e-08 -6.21178e-06)
(1.32238e-05 3.59554e-08 -6.2097e-06)
(1.52486e-06 3.52736e-08 -1.03532e-05)
(2.24141e-07 4.18919e-08 -9.74383e-06)
(3.43672e-08 4.44518e-08 -9.66818e-06)
(5.85174e-09 4.41851e-08 -9.67064e-06)
(2.17655e-09 4.41911e-08 -9.67105e-06)
(1.31305e-09 4.49778e-08 -9.67099e-06)
(8.83717e-10 4.49613e-08 -9.67099e-06)
(6.60464e-10 4.49928e-08 -9.67097e-06)
(4.36131e-10 4.50056e-08 -9.6709e-06)
(2.79549e-10 4.42433e-08 -9.67096e-06)
(2.97223e-10 4.58075e-08 -9.67092e-06)
(2.15036e-10 4.50672e-08 -9.67079e-06)
(-1.5026e-10 4.50501e-08 -9.67081e-06)
(-1.09364e-11 4.50737e-08 -9.67134e-06)
(1.72857e-10 4.49281e-08 -9.67086e-06)
(-9.40826e-11 4.50608e-08 -9.67085e-06)
(-1.13659e-10 4.53657e-08 -9.67106e-06)
(-3.34056e-10 4.51429e-08 -9.67075e-06)
(-3.29326e-10 4.51806e-08 -9.67125e-06)
(-4.73504e-10 4.54295e-08 -9.67098e-06)
(-6.47292e-10 4.48751e-08 -9.67132e-06)
(-7.53729e-10 4.49801e-08 -9.67091e-06)
(-1.27586e-09 4.48297e-08 -9.67102e-06)
(-2.17585e-09 4.50093e-08 -9.67089e-06)
(-6.01744e-09 4.48097e-08 -9.67046e-06)
(-3.44171e-08 4.56565e-08 -9.66838e-06)
(-2.24138e-07 4.26652e-08 -9.74384e-06)
(-1.52471e-06 3.50249e-08 -1.03533e-05)
(-1.32247e-05 3.64442e-08 -6.20939e-06)
(1.32272e-05 1.14876e-08 -6.20862e-06)
(1.52584e-06 1.09612e-08 -1.03532e-05)
(2.2461e-07 1.30349e-08 -9.74369e-06)
(3.43781e-08 1.37892e-08 -9.668e-06)
(5.78645e-09 1.33221e-08 -9.6705e-06)
(2.32051e-09 1.3991e-08 -9.67117e-06)
(1.41851e-09 1.401e-08 -9.67083e-06)
(8.81224e-10 1.40001e-08 -9.67082e-06)
(6.58856e-10 1.40214e-08 -9.6708e-06)
(3.26193e-10 1.40394e-08 -9.67073e-06)
(3.19255e-10 1.4039e-08 -9.67109e-06)
(4.03929e-10 1.42691e-08 -9.67088e-06)
(1.77715e-10 1.40052e-08 -9.67063e-06)
(-5.34425e-11 1.40593e-08 -9.67063e-06)
(-2.72121e-11 1.45703e-08 -9.67099e-06)
(7.93681e-11 1.37321e-08 -9.67085e-06)
(-6.30181e-11 1.40545e-08 -9.67066e-06)
(-1.09119e-10 1.41264e-08 -9.6707e-06)
(-2.36838e-10 1.40769e-08 -9.67059e-06)
(-3.08746e-10 1.48708e-08 -9.67075e-06)
(-4.95615e-10 1.42038e-08 -9.67064e-06)
(-6.65471e-10 1.44733e-08 -9.67104e-06)
(-8.5866e-10 1.40113e-08 -9.67073e-06)
(-1.2736e-09 1.36473e-08 -9.67101e-06)
(-2.07193e-09 1.40013e-08 -9.67072e-06)
(-5.97392e-09 1.44108e-08 -9.67019e-06)
(-3.45861e-08 1.4152e-08 -9.66816e-06)
(-2.24734e-07 1.33477e-08 -9.74377e-06)
(-1.5256e-06 1.04522e-08 -1.03536e-05)
(-1.3228e-05 1.12986e-08 -6.20835e-06)
(1.32275e-05 -1.04601e-08 -6.20845e-06)
(1.52567e-06 -1.09565e-08 -1.03532e-05)
(2.24595e-07 -1.30493e-08 -9.74367e-06)
(3.43799e-08 -1.40109e-08 -9.66805e-06)
(5.89939e-09 -1.33247e-08 -9.6705e-06)
(2.31157e-09 -1.32681e-08 -9.67089e-06)
(1.31155e-09 -1.40315e-08 -9.67083e-06)
(8.78684e-10 -1.40458e-08 -9.67082e-06)
(6.59821e-10 -1.4034e-08 -9.67079e-06)
(4.29667e-10 -1.40092e-08 -9.67073e-06)
(3.1577e-10 -1.32528e-08 -9.67081e-06)
(2.89345e-10 -1.42225e-08 -9.6709e-06)
(1.75871e-10 -1.41854e-08 -9.6707e-06)
(-4.07422e-11 -1.40345e-08 -9.67064e-06)
(-7.01522e-11 -1.44407e-08 -9.67099e-06)
(7.5889e-11 -1.48015e-08 -9.67079e-06)
(-1.94142e-11 -1.4042e-08 -9.67066e-06)
(-1.07811e-10 -1.41334e-08 -9.67071e-06)
(-1.88426e-10 -1.40406e-08 -9.67063e-06)
(-3.00439e-10 -1.36911e-08 -9.67083e-06)
(-5.4095e-10 -1.40125e-08 -9.67059e-06)
(-6.71748e-10 -1.44879e-08 -9.67104e-06)
(-9.05189e-10 -1.40587e-08 -9.67072e-06)
(-1.27895e-09 -1.48515e-08 -9.67095e-06)
(-2.02969e-09 -1.4091e-08 -9.67073e-06)
(-5.97402e-09 -1.45431e-08 -9.6702e-06)
(-3.45681e-08 -1.42433e-08 -9.66818e-06)
(-2.24894e-07 -1.29454e-08 -9.74361e-06)
(-1.52565e-06 -1.20413e-08 -1.03533e-05)
(-1.32276e-05 -1.13856e-08 -6.20839e-06)
(1.32241e-05 -3.64511e-08 -6.20987e-06)
(1.52478e-06 -3.52851e-08 -1.03532e-05)
(2.24099e-07 -4.19496e-08 -9.74381e-06)
(3.43746e-08 -4.4851e-08 -9.66841e-06)
(5.92193e-09 -4.42046e-08 -9.67064e-06)
(2.16892e-09 -4.47004e-08 -9.67114e-06)
(1.26845e-09 -4.50008e-08 -9.67101e-06)
(8.78734e-10 -4.50038e-08 -9.671e-06)
(6.60523e-10 -4.50019e-08 -9.67097e-06)
(4.70845e-10 -4.4985e-08 -9.67092e-06)
(2.72175e-10 -4.4691e-08 -9.67106e-06)
(2.23573e-10 -4.57647e-08 -9.67096e-06)
(2.12468e-10 -4.5399e-08 -9.67107e-06)
(-1.0345e-10 -4.50243e-08 -9.67084e-06)
(-1.71511e-10 -4.48443e-08 -9.67129e-06)
(1.59092e-10 -4.49916e-08 -9.67125e-06)
(6.87007e-11 -4.5043e-08 -9.67084e-06)
(-1.06885e-10 -4.53679e-08 -9.67108e-06)
(-1.52873e-10 -4.50444e-08 -9.67083e-06)
(-3.01412e-10 -4.48903e-08 -9.67087e-06)
(-6.45214e-10 -4.50875e-08 -9.67076e-06)
(-6.7121e-10 -4.48886e-08 -9.67133e-06)
(-9.247e-10 -4.5004e-08 -9.67091e-06)
(-1.29027e-09 -4.50179e-08 -9.67142e-06)
(-2.01734e-09 -4.50527e-08 -9.67092e-06)
(-6.01818e-09 -4.49353e-08 -9.6705e-06)
(-3.43403e-08 -4.57088e-08 -9.66845e-06)
(-2.24618e-07 -4.18552e-08 -9.74371e-06)
(-1.52488e-06 -3.52776e-08 -1.03534e-05)
(-1.32237e-05 -3.64991e-08 -6.2095e-06)
(1.3216e-05 -7.02738e-08 -6.21194e-06)
(1.52294e-06 -6.73272e-08 -1.03531e-05)
(2.23035e-07 -7.98673e-08 -9.74423e-06)
(3.41015e-08 -8.52684e-08 -9.66877e-06)
(5.93099e-09 -8.56426e-08 -9.67092e-06)
(2.15037e-09 -8.52754e-08 -9.6714e-06)
(1.26041e-09 -8.53271e-08 -9.67142e-06)
(8.81217e-10 -8.53191e-08 -9.67141e-06)
(6.60901e-10 -8.53294e-08 -9.67138e-06)
(4.83585e-10 -8.53174e-08 -9.67134e-06)
(1.62776e-10 -8.52299e-08 -9.67131e-06)
(1.58232e-10 -8.53821e-08 -9.67162e-06)
(3.16344e-10 -8.6183e-08 -9.67141e-06)
(6.60198e-11 -8.53712e-08 -9.67126e-06)
(-5.7601e-11 -8.44867e-08 -9.67135e-06)
(3.79232e-11 -8.4543e-08 -9.67136e-06)
(-8.72282e-11 -8.54225e-08 -9.67124e-06)
(-1.06576e-10 -8.61623e-08 -9.67144e-06)
(-1.0123e-10 -8.53878e-08 -9.67126e-06)
(-3.08742e-10 -8.53204e-08 -9.67123e-06)
(-5.37234e-10 -8.55471e-08 -9.67118e-06)
(-6.53782e-10 -8.45586e-08 -9.67136e-06)
(-9.30329e-10 -8.53051e-08 -9.67132e-06)
(-1.29362e-09 -8.45458e-08 -9.67151e-06)
(-2.02001e-09 -8.53769e-08 -9.67134e-06)
(-6.11683e-09 -8.4579e-08 -9.67054e-06)
(-3.41557e-08 -8.54698e-08 -9.66912e-06)
(-2.23171e-07 -7.96538e-08 -9.74404e-06)
(-1.52294e-06 -6.62244e-08 -1.03532e-05)
(-1.32161e-05 -6.95023e-08 -6.21186e-06)
(1.32013e-05 -1.17432e-07 -6.21632e-06)
(1.51963e-06 -1.14159e-07 -1.03529e-05)
(2.21222e-07 -1.35e-07 -9.74506e-06)
(3.35619e-08 -1.4218e-07 -9.66974e-06)
(5.96574e-09 -1.43235e-07 -9.67169e-06)
(2.23208e-09 -1.43538e-07 -9.67209e-06)
(1.27332e-09 -1.43448e-07 -9.67217e-06)
(8.85242e-10 -1.43432e-07 -9.67215e-06)
(6.61385e-10 -1.43459e-07 -9.67212e-06)
(4.8574e-10 -1.43445e-07 -9.67207e-06)
(2.59958e-10 -1.43472e-07 -9.67199e-06)
(4.61567e-11 -1.42793e-07 -9.67205e-06)
(2.10635e-10 -1.43522e-07 -9.67238e-06)
(2.20227e-10 -1.43523e-07 -9.672e-06)
(-5.90221e-12 -1.43131e-07 -9.67219e-06)
(-1.84146e-11 -1.4315e-07 -9.6722e-06)
(-2.34115e-10 -1.43646e-07 -9.67199e-06)
(-1.00332e-10 -1.43488e-07 -9.67241e-06)
(1.64805e-12 -1.43502e-07 -9.672e-06)
(-3.301e-10 -1.43498e-07 -9.67198e-06)
(-4.98772e-10 -1.43929e-07 -9.67202e-06)
(-6.25614e-10 -1.4326e-07 -9.67217e-06)
(-9.26717e-10 -1.4344e-07 -9.67206e-06)
(-1.30382e-09 -1.43116e-07 -9.67233e-06)
(-2.03013e-09 -1.43559e-07 -9.67208e-06)
(-6.04407e-09 -1.43248e-07 -9.67138e-06)
(-3.36782e-08 -1.41869e-07 -9.67e-06)
(-2.2126e-07 -1.34562e-07 -9.74467e-06)
(-1.51947e-06 -1.13622e-07 -1.03532e-05)
(-1.32018e-05 -1.17583e-07 -6.21615e-06)
(1.31762e-05 -1.89998e-07 -6.22346e-06)
(1.51352e-06 -1.86357e-07 -1.03525e-05)
(2.18697e-07 -2.19376e-07 -9.74594e-06)
(3.29802e-08 -2.2911e-07 -9.67061e-06)
(5.72622e-09 -2.30749e-07 -9.6725e-06)
(2.11769e-09 -2.31845e-07 -9.67324e-06)
(1.29968e-09 -2.31609e-07 -9.67333e-06)
(8.89508e-10 -2.31586e-07 -9.67331e-06)
(6.62163e-10 -2.31643e-07 -9.67328e-06)
(4.79644e-10 -2.31615e-07 -9.67324e-06)
(2.85028e-10 -2.31762e-07 -9.67316e-06)
(1.52036e-10 -2.31547e-07 -9.67331e-06)
(1.73298e-10 -2.3097e-07 -9.67323e-06)
(1.34967e-10 -2.31737e-07 -9.67317e-06)
(1.96099e-11 -2.31538e-07 -9.67322e-06)
(-5.10091e-11 -2.31543e-07 -9.67322e-06)
(-1.39725e-10 -2.32001e-07 -9.67325e-06)
(-8.24539e-11 -2.30874e-07 -9.67327e-06)
(-1.10566e-10 -2.31654e-07 -9.67318e-06)
(-3.77113e-10 -2.31703e-07 -9.67316e-06)
(-4.96687e-10 -2.32591e-07 -9.67349e-06)
(-5.78405e-10 -2.31796e-07 -9.67317e-06)
(-9.13416e-10 -2.3162e-07 -9.67323e-06)
(-1.32371e-09 -2.3147e-07 -9.67334e-06)
(-2.04948e-09 -2.31833e-07 -9.67324e-06)
(-5.81969e-09 -2.31806e-07 -9.6725e-06)
(-3.29119e-08 -2.29768e-07 -9.67092e-06)
(-2.18619e-07 -2.18493e-07 -9.74566e-06)
(-1.51357e-06 -1.86058e-07 -1.03526e-05)
(-1.31766e-05 -1.91188e-07 -6.22345e-06)
(1.31329e-05 -3.05552e-07 -6.23569e-06)
(1.50356e-06 -3.00506e-07 -1.03514e-05)
(2.14869e-07 -3.49801e-07 -9.74738e-06)
(3.20966e-08 -3.66011e-07 -9.67236e-06)
(5.518e-09 -3.68271e-07 -9.67427e-06)
(2.08601e-09 -3.68987e-07 -9.6749e-06)
(1.34438e-09 -3.6851e-07 -9.67495e-06)
(8.92632e-10 -3.6848e-07 -9.67492e-06)
(6.63352e-10 -3.68587e-07 -9.67488e-06)
(4.66825e-10 -3.68523e-07 -9.67486e-06)
(2.70905e-10 -3.68832e-07 -9.67482e-06)
(1.91296e-10 -3.68891e-07 -9.67481e-06)
(1.67084e-10 -3.68481e-07 -9.67496e-06)
(1.10765e-10 -3.68737e-07 -9.6748e-06)
(3.99147e-11 -3.68562e-07 -9.6748e-06)
(-8.5592e-11 -3.68564e-07 -9.67479e-06)
(-1.01604e-10 -3.69285e-07 -9.67511e-06)
(-4.86068e-11 -3.68272e-07 -9.675e-06)
(-1.55178e-10 -3.68562e-07 -9.67482e-06)
(-4.65616e-10 -3.68644e-07 -9.67477e-06)
(-5.2033e-10 -3.70416e-07 -9.67525e-06)
(-4.90969e-10 -3.69079e-07 -9.67474e-06)
(-8.86548e-10 -3.68533e-07 -9.67485e-06)
(-1.35559e-09 -3.6845e-07 -9.6749e-06)
(-2.0876e-09 -3.68928e-07 -9.67488e-06)
(-5.71109e-09 -3.69176e-07 -9.67433e-06)
(-3.18612e-08 -3.66102e-07 -9.6728e-06)
(-2.14624e-07 -3.49771e-07 -9.74698e-06)
(-1.5038e-06 -3.00282e-07 -1.03515e-05)
(-1.31331e-05 -3.06325e-07 -6.23548e-06)
(1.30588e-05 -4.87332e-07 -6.25482e-06)
(1.48788e-06 -4.83243e-07 -1.03489e-05)
(2.09302e-07 -5.5646e-07 -9.74851e-06)
(3.05996e-08 -5.8061e-07 -9.67414e-06)
(5.29327e-09 -5.83496e-07 -9.67606e-06)
(2.09464e-09 -5.8424e-07 -9.67697e-06)
(1.41115e-09 -5.83351e-07 -9.67687e-06)
(8.93546e-10 -5.83321e-07 -9.67682e-06)
(6.64701e-10 -5.83521e-07 -9.67678e-06)
(4.47036e-10 -5.83371e-07 -9.67677e-06)
(2.29756e-10 -5.83941e-07 -9.67689e-06)
(2.04519e-10 -5.84246e-07 -9.67687e-06)
(1.76101e-10 -5.83744e-07 -9.67678e-06)
(1.12903e-10 -5.83734e-07 -9.67671e-06)
(6.40399e-11 -5.83483e-07 -9.67673e-06)
(-1.42999e-10 -5.83475e-07 -9.6767e-06)
(-8.42756e-11 -5.84778e-07 -9.67691e-06)
(1.56953e-11 -5.83337e-07 -9.67677e-06)
(-1.73123e-10 -5.83411e-07 -9.67675e-06)
(-6.35672e-10 -5.83512e-07 -9.67667e-06)
(-5.67577e-10 -5.85111e-07 -9.67718e-06)
(-3.20545e-10 -5.84458e-07 -9.67682e-06)
(-8.41203e-10 -5.83384e-07 -9.67678e-06)
(-1.40238e-09 -5.83323e-07 -9.67681e-06)
(-2.15737e-09 -5.84111e-07 -9.67694e-06)
(-5.39356e-09 -5.84724e-07 -9.67614e-06)
(-3.04086e-08 -5.80137e-07 -9.67448e-06)
(-2.09183e-07 -5.57227e-07 -9.7484e-06)
(-1.48802e-06 -4.83029e-07 -1.03489e-05)
(-1.30587e-05 -4.88053e-07 -6.25495e-06)
(1.29344e-05 -7.749e-07 -6.28617e-06)
(1.46349e-06 -7.77737e-07 -1.03443e-05)
(2.01637e-07 -8.86286e-07 -9.75061e-06)
(2.87292e-08 -9.19145e-07 -9.67685e-06)
(5.04023e-09 -9.22604e-07 -9.6787e-06)
(2.13205e-09 -9.23722e-07 -9.68001e-06)
(1.50379e-09 -9.22094e-07 -9.67952e-06)
(8.94352e-10 -9.22084e-07 -9.67946e-06)
(6.64151e-10 -9.22452e-07 -9.67948e-06)
(4.1464e-10 -9.22125e-07 -9.67942e-06)
(1.66081e-10 -9.2315e-07 -9.67987e-06)
(2.09024e-10 -9.23781e-07 -9.68004e-06)
(1.91978e-10 -9.22945e-07 -9.67958e-06)
(1.27221e-10 -9.22735e-07 -9.67939e-06)
(9.79066e-11 -9.22305e-07 -9.67941e-06)
(-2.53143e-10 -9.22255e-07 -9.67937e-06)
(-7.53027e-11 -9.22748e-07 -9.67959e-06)
(1.38691e-10 -9.22186e-07 -9.67936e-06)
(-1.74781e-10 -9.22171e-07 -9.67942e-06)
(-6.49059e-10 -9.22297e-07 -9.67931e-06)
(-6.32373e-10 -9.22442e-07 -9.67974e-06)
(-3.0315e-10 -9.24111e-07 -9.68005e-06)
(-7.76331e-10 -9.22137e-07 -9.67944e-06)
(-1.46542e-09 -9.22081e-07 -9.67947e-06)
(-2.29841e-09 -9.23455e-07 -9.67997e-06)
(-5.1449e-09 -9.2275e-07 -9.67885e-06)
(-2.84784e-08 -9.19469e-07 -9.6771e-06)
(-2.01549e-07 -8.86466e-07 -9.75028e-06)
(-1.46359e-06 -7.7748e-07 -1.03442e-05)
(-1.2934e-05 -7.75904e-07 -6.28669e-06)
(1.27336e-05 -1.23055e-06 -6.3414e-06)
(1.42784e-06 -1.25327e-06 -1.03417e-05)
(1.91379e-07 -1.40933e-06 -9.75851e-06)
(2.63368e-08 -1.45387e-06 -9.68624e-06)
(4.75458e-09 -1.45779e-06 -9.68779e-06)
(2.20021e-09 -1.45965e-06 -9.68915e-06)
(1.6324e-09 -1.45681e-06 -9.68857e-06)
(9.07866e-10 -1.45687e-06 -9.68854e-06)
(6.54415e-10 -1.45753e-06 -9.68882e-06)
(3.40961e-10 -1.45686e-06 -9.68847e-06)
(7.33231e-11 -1.45858e-06 -9.68868e-06)
(2.2626e-10 -1.45974e-06 -9.68924e-06)
(2.20376e-10 -1.45833e-06 -9.68902e-06)
(1.45273e-10 -1.45789e-06 -9.68859e-06)
(1.46802e-10 -1.45714e-06 -9.68848e-06)
(-1.48263e-10 -1.45703e-06 -9.68844e-06)
(-6.97701e-11 -1.45696e-06 -9.68852e-06)
(5.21862e-11 -1.457e-06 -9.68842e-06)
(-1.62145e-10 -1.45694e-06 -9.68846e-06)
(-5.2199e-10 -1.45715e-06 -9.6884e-06)
(-7.22101e-10 -1.45765e-06 -9.68923e-06)
(-4.21803e-10 -1.46038e-06 -9.68953e-06)
(-6.81172e-10 -1.45687e-06 -9.68848e-06)
(-1.54468e-09 -1.45682e-06 -9.68855e-06)
(-2.26106e-09 -1.45917e-06 -9.68907e-06)
(-4.91385e-09 -1.45696e-06 -9.68769e-06)
(-2.6229e-08 -1.45275e-06 -9.686e-06)
(-1.91228e-07 -1.40916e-06 -9.75815e-06)
(-1.42797e-06 -1.25292e-06 -1.03416e-05)
(-1.2733e-05 -1.23209e-06 -6.34161e-06)
(1.24298e-05 -1.95197e-06 -6.45139e-06)
(1.37986e-06 -2.01854e-06 -1.03636e-05)
(1.78012e-07 -2.23673e-06 -9.79726e-06)
(2.33253e-08 -2.29645e-06 -9.72743e-06)
(4.43759e-09 -2.3005e-06 -9.72846e-06)
(2.30257e-09 -2.30129e-06 -9.7302e-06)
(1.82477e-09 -2.29885e-06 -9.72917e-06)
(9.66886e-10 -2.29908e-06 -9.72934e-06)
(6.17591e-10 -2.30027e-06 -9.73009e-06)
(1.4961e-10 -2.29895e-06 -9.72907e-06)
(-9.32728e-11 -2.29933e-06 -9.72903e-06)
(2.91558e-10 -2.30122e-06 -9.72922e-06)
(3.14969e-10 -2.30131e-06 -9.72927e-06)
(1.71795e-10 -2.3007e-06 -9.72963e-06)
(2.01894e-10 -2.29941e-06 -9.72911e-06)
(-9.99589e-11 -2.29924e-06 -9.72907e-06)
(-6.6972e-11 -2.30047e-06 -9.73e-06)