/*--------------------------------*- C++ -*----------------------------------*\
| =========                 |                                                 |
| \\      /  F ield         | OpenFOAM: The Open Source CFD Toolbox           |
|  \\    /   O peration     | Version:  2106                                  |
|   \\  /    A nd           | Website:  www.openfoam.com                      |
|    \\/     M anipulation  |                                                 |
\*---------------------------------------------------------------------------*/
FoamFile
{
    version     2.0;
    format      ascii;
    arch        "LSB;label=32;scalar=64";
    class       volSymmTensorField;
    location    "245";
    object      epsilon;
}
// * * * * * * * * * * * * * * * * * * * * * * * * * * * * * * * * * * * * * //

dimensions      [0 0 0 0 0 0 0];

internalField   nonuniform List<symmTensor> 
9000
(
(-0.085632 -0.00026684 0.0482273 -0.147199 0.0614632 -0.0251349)
(-0.0167908 0.000537222 0.00941368 -0.156534 0.0651755 -0.0696039)
(-0.00193345 0.000336063 0.0025782 -0.166466 0.0692132 -0.0593273)
(-0.000322628 5.09393e-05 0.000451502 -0.168081 0.070103 -0.0572032)
(-5.55602e-05 -7.55359e-06 3.82376e-05 -0.168166 0.0701317 -0.0572083)
(-4.56718e-06 -1.82288e-06 1.75064e-05 -0.167998 0.0699285 -0.0574532)
(-2.06024e-06 4.32233e-08 1.78225e-05 -0.168145 0.0700994 -0.0572812)
(2.39092e-07 -5.76322e-06 -1.02177e-06 -0.167989 0.0699283 -0.0574559)
(-5.5618e-07 6.39195e-06 2.56475e-05 -0.167992 0.0699286 -0.0574523)
(-5.61949e-06 6.52307e-06 -1.21163e-05 -0.168159 0.0701117 -0.0572498)
(2.56319e-06 -5.94134e-06 -4.56339e-05 -0.16805 0.0699985 -0.0573539)
(6.52466e-06 -5.04035e-07 3.64237e-05 -0.167892 0.0698223 -0.0575376)
(-4.30428e-06 5.08998e-06 4.85802e-05 -0.168157 0.0701051 -0.0572592)
(-3.07842e-06 7.52862e-07 -3.11536e-05 -0.168164 0.0701074 -0.057269)
(3.47381e-06 9.61653e-07 3.88778e-06 -0.168062 0.0700065 -0.0573395)
(-2.65909e-06 -1.21036e-06 2.95377e-05 -0.168166 0.0701162 -0.0572397)
(-1.64138e-06 2.84223e-07 -3.4807e-05 -0.168163 0.0701072 -0.0572719)
(3.51827e-07 8.26681e-07 1.04102e-06 -0.168063 0.0700075 -0.0573369)
(-1.95257e-06 -6.56052e-06 -2.02854e-05 -0.168156 0.070109 -0.0572533)
(4.53377e-06 -6.30559e-06 -2.04261e-05 -0.167885 0.0698191 -0.0575496)
(2.26786e-06 5.81166e-06 4.28436e-05 -0.167989 0.0699275 -0.0574532)
(-5.51621e-06 6.30324e-06 7.5331e-06 -0.16816 0.0701074 -0.0572589)
(-2.90523e-06 -5.92281e-06 -2.72788e-05 -0.168158 0.0701112 -0.0572568)
(2.01748e-07 -7.57241e-07 -2.00647e-05 -0.167998 0.0699313 -0.0574474)
(-7.94268e-06 1.6028e-06 -1.85146e-05 -0.168146 0.0700983 -0.0572823)
(-5.47432e-05 1.71853e-06 -8.80231e-05 -0.168007 0.0699552 -0.0573889)
(-0.000316622 -4.6019e-05 -0.000441473 -0.167962 0.069983 -0.0573216)
(-0.0019337 -0.000335916 -0.0025416 -0.16646 0.0692009 -0.05936)
(-0.0167935 -0.000536269 -0.00940964 -0.156534 0.0651756 -0.0696017)
(-0.0856324 0.000266809 -0.0482284 -0.1472 0.0614611 -0.0251351)
(-0.0724302 -1.53738e-05 0.0465424 -0.0981328 0.0682512 -0.128875)
(-0.0164141 0.000681386 0.00805309 -0.103241 0.0718092 -0.174957)
(-0.00180622 0.000432947 0.00155002 -0.109293 0.0763115 -0.17127)
(-0.000207915 7.12836e-05 0.000229242 -0.110461 0.0774628 -0.170571)
(-2.8067e-05 -5.9955e-06 2.83535e-05 -0.110486 0.0774989 -0.170613)
(-4.82187e-06 -3.57185e-06 2.53249e-05 -0.110276 0.0774409 -0.170614)
(-2.01238e-06 6.9043e-07 1.90895e-05 -0.110454 0.0774453 -0.170635)
(-1.32542e-06 -1.2137e-06 -7.65798e-06 -0.110252 0.0774429 -0.170613)
(-7.37054e-07 2.03346e-06 2.87259e-05 -0.110256 0.0774415 -0.170612)
(-8.5546e-07 7.01451e-06 2.83414e-05 -0.110465 0.0774635 -0.170628)
(-2.81329e-07 3.0513e-06 -1.36477e-05 -0.110374 0.0776384 -0.170591)
(-7.40104e-08 -5.87622e-06 9.94217e-07 -0.110172 0.0776261 -0.170569)
(-6.82688e-07 -6.79767e-06 1.9342e-05 -0.11047 0.0774521 -0.170625)
(-2.21523e-07 6.14024e-06 1.33541e-06 -0.11044 0.0773077 -0.170612)
(2.0718e-07 3.77211e-06 -4.74082e-07 -0.110385 0.07765 -0.170592)
(-3.08482e-07 -8.71701e-06 -1.71845e-06 -0.110471 0.077469 -0.170626)
(2.31783e-08 5.03587e-06 6.19592e-07 -0.110439 0.0773079 -0.170614)
(5.52705e-08 3.73628e-06 -5.58432e-07 -0.110387 0.0776514 -0.170592)
(-6.20509e-07 -2.19191e-06 -2.11641e-05 -0.110459 0.0774595 -0.170626)
(-6.39374e-07 -1.96552e-06 -2.39068e-05 -0.110164 0.0776238 -0.170573)
(-6.53231e-07 -3.94029e-06 1.00394e-05 -0.110248 0.077441 -0.170608)
(-8.19337e-07 1.97173e-06 9.69064e-06 -0.110478 0.0774561 -0.170631)
(-9.79584e-07 -1.09997e-06 -3.19956e-05 -0.110464 0.0774642 -0.170633)
(-1.53505e-06 -1.64575e-06 -1.67919e-05 -0.110266 0.0774443 -0.170613)
(-5.30218e-06 3.34599e-06 -2.3032e-05 -0.110466 0.0774437 -0.170633)
(-2.83907e-05 9.38401e-06 -4.57922e-05 -0.110283 0.077486 -0.170589)
(-0.000207845 -7.37238e-05 -0.000208694 -0.110356 0.0776288 -0.170533)
(-0.00180631 -0.000437414 -0.00155348 -0.109256 0.0761456 -0.171253)
(-0.0164142 -0.000677841 -0.00805457 -0.103241 0.0718087 -0.174955)
(-0.0724296 1.53145e-05 -0.0465432 -0.0981374 0.0682456 -0.128873)
(-0.0763305 0.00116928 0.0468059 -0.0575905 0.0582332 -0.153314)
(-0.0165389 0.000870337 0.00789144 -0.0602447 0.0607093 -0.201938)
(-0.00180828 0.000519988 0.0013766 -0.0634026 0.0647824 -0.199899)
(-0.00018816 9.8487e-05 0.000169112 -0.0641386 0.0659653 -0.199586)
(-1.94155e-05 -5.53165e-07 5.1037e-05 -0.0641419 0.0660121 -0.199642)
(-4.83027e-06 -4.65116e-06 2.74255e-05 -0.0640422 0.0661295 -0.199594)
(-1.71805e-06 2.43386e-06 1.85983e-05 -0.06412 0.0659614 -0.19965)
(-2.19454e-06 3.93651e-06 1.72157e-05 -0.0640354 0.0662237 -0.199614)
(-1.53434e-06 -2.92602e-06 2.43642e-06 -0.0640456 0.0662219 -0.199613)
(1.20823e-06 -2.61238e-06 3.73471e-06 -0.0641189 0.0659795 -0.199649)
(-6.26001e-07 2.98447e-06 1.3278e-05 -0.06411 0.0659538 -0.199634)
(-2.91146e-06 -2.56119e-06 7.63092e-07 -0.0640332 0.0662046 -0.199595)
(1.90091e-07 -3.28337e-06 -2.12427e-05 -0.0641024 0.0658781 -0.199623)
(1.52731e-06 3.39557e-06 5.63566e-07 -0.0640501 0.0659775 -0.199631)
(-8.35536e-07 5.88048e-07 1.24498e-05 -0.0641139 0.0659668 -0.199639)
(8.28632e-09 -8.09503e-07 -1.57723e-05 -0.0641217 0.0659852 -0.19965)
(1.09554e-06 3.64867e-07 1.68511e-06 -0.0640498 0.065978 -0.199633)
(4.60945e-07 6.77857e-08 1.35217e-05 -0.0641152 0.0659679 -0.199639)
(-2.28524e-07 2.30359e-06 5.68673e-06 -0.0641149 0.0659759 -0.199646)
(-2.86587e-06 2.95568e-06 2.23008e-06 -0.0640274 0.0662044 -0.199597)
(-2.27746e-06 -5.52668e-06 -1.63931e-05 -0.0640325 0.0662217 -0.199609)
(1.24784e-06 -2.51278e-06 -1.66499e-05 -0.0641106 0.065881 -0.199631)
(-1.61007e-08 5.10664e-06 -6.79981e-06 -0.064117 0.0659813 -0.199654)
(-2.4154e-06 -3.93855e-06 -1.51957e-05 -0.0640529 0.0662229 -0.199614)
(-4.14499e-06 3.89621e-06 -2.39328e-05 -0.0641122 0.0658688 -0.199626)
(-2.08057e-05 4.06338e-06 -4.10982e-05 -0.0640652 0.0662623 -0.199599)
(-0.000190126 -0.000102798 -0.000187519 -0.0641184 0.0659322 -0.199565)
(-0.00180736 -0.000518979 -0.00138149 -0.0633277 0.0647689 -0.199875)
(-0.0165382 -0.000870226 -0.00788001 -0.0602431 0.0607091 -0.201934)
(-0.0763287 -0.00116938 -0.0468063 -0.0576005 0.0582263 -0.153312)
(-0.0819021 0.00181269 0.0484256 -0.0351904 0.040964 -0.154219)
(-0.0170971 0.000879251 0.0081636 -0.0372527 0.0423175 -0.205364)
(-0.00187006 0.000495039 0.00149577 -0.0391333 0.0456634 -0.203471)
(-0.000208087 0.00010064 0.000189073 -0.0396558 0.0465439 -0.203178)
(-2.11653e-05 -2.17867e-07 3.56699e-05 -0.0396664 0.0465933 -0.203239)
(-3.82738e-06 -5.82962e-06 2.73286e-05 -0.0396106 0.0464968 -0.203222)
(-1.94434e-06 1.2686e-06 2.76357e-05 -0.0396371 0.0464867 -0.20323)
(-2.15341e-06 9.06506e-07 1.28119e-05 -0.0396515 0.0465645 -0.203253)
(-9.45015e-07 3.93089e-07 6.49659e-06 -0.0396464 0.0464961 -0.203234)
(6.6871e-07 4.81309e-07 6.8962e-06 -0.0396431 0.0465682 -0.203248)
(-1.18962e-06 -1.63531e-06 8.44582e-06 -0.0396396 0.0465535 -0.203243)
(-2.16592e-06 1.09353e-06 -8.8326e-06 -0.039649 0.0465532 -0.203243)
(7.15779e-07 5.58431e-06 -3.41096e-06 -0.0396014 0.0465632 -0.203232)
(8.62106e-07 3.9596e-07 1.02867e-05 -0.0396184 0.0467276 -0.203252)
(-9.06776e-07 -3.36706e-06 -6.3543e-07 -0.0396359 0.0465655 -0.203248)
(2.22496e-07 4.17941e-06 -2.26526e-06 -0.0396449 0.0465741 -0.20325)
(7.24081e-07 -6.84238e-07 1.28474e-06 -0.0396193 0.046728 -0.203254)
(1.49601e-07 -4.28329e-06 4.84763e-07 -0.0396365 0.046566 -0.203247)
(-3.25523e-07 -1.47553e-06 1.22542e-06 -0.0396414 0.046566 -0.203246)
(-2.50889e-06 -3.70774e-07 -1.97062e-06 -0.0396459 0.0465542 -0.203245)
(-1.69464e-06 1.23352e-06 -2.13371e-05 -0.0396507 0.0465635 -0.203248)
(1.18066e-06 1.22857e-06 -1.20201e-05 -0.0396095 0.0465653 -0.203238)
(-6.18535e-07 -1.5777e-06 -1.22913e-07 -0.0396398 0.0465714 -0.203252)
(-2.35717e-06 -3.53721e-06 -2.49446e-05 -0.0396507 0.0464951 -0.203234)
(-3.28261e-06 4.67181e-06 -2.39859e-05 -0.0396023 0.0464873 -0.203215)
(-2.20949e-05 -6.66472e-07 -3.02809e-05 -0.0396749 0.0465921 -0.203236)
(-0.00020971 -9.78583e-05 -0.000190211 -0.0396439 0.0465224 -0.203168)
(-0.00186982 -0.000492495 -0.00149902 -0.0391071 0.0458102 -0.203469)
(-0.0170961 -0.000884182 -0.00816498 -0.0372516 0.0423176 -0.20536)
(-0.0819082 -0.00181274 -0.0484251 -0.0351825 0.0408935 -0.154198)
(-0.0860807 0.00177622 0.0504234 -0.0220738 0.0264268 -0.152225)
(-0.0177811 0.000769678 0.00857665 -0.0235921 0.0268131 -0.205728)
(-0.00195342 0.00041227 0.0016663 -0.0249491 0.029433 -0.203762)
(-0.000235832 8.65368e-05 0.000209589 -0.025304 0.0300034 -0.203428)
(-2.63659e-05 5.94687e-06 3.53073e-05 -0.0253073 0.0299962 -0.20348)
(-3.58862e-06 -3.75548e-06 1.74326e-05 -0.0252654 0.0301381 -0.203511)
(-1.72124e-06 -3.03448e-06 2.6231e-05 -0.025268 0.0299693 -0.203481)
(-1.90274e-06 2.04724e-06 1.12826e-05 -0.0253018 0.03004 -0.203512)
(-4.23493e-07 6.01545e-09 7.65147e-06 -0.0252767 0.030039 -0.203503)
(5.1422e-08 -2.22607e-06 1.62133e-05 -0.0253042 0.0300331 -0.203505)
(-1.29121e-06 -1.5893e-06 6.32273e-06 -0.0252873 0.0299712 -0.203489)
(-1.42068e-06 4.3854e-06 4.33975e-07 -0.0253058 0.030033 -0.203504)
(3.58418e-07 4.22233e-06 -2.38066e-06 -0.025294 0.0301285 -0.203512)
(5.17281e-07 -1.85569e-06 1.07543e-06 -0.0253183 0.0300536 -0.20351)
(-7.09494e-07 -2.02938e-06 5.86e-07 -0.0252957 0.0300347 -0.203507)
(1.16678e-07 2.48243e-06 -2.86548e-06 -0.0253069 0.0300379 -0.203506)
(6.31809e-07 -3.75093e-07 7.36116e-07 -0.025319 0.0300538 -0.203512)
(-1.08812e-07 -3.00387e-06 1.36612e-06 -0.025296 0.0300348 -0.203506)
(-5.5629e-07 -1.50215e-06 -5.34323e-07 -0.0253049 0.0300316 -0.203502)
(-1.63826e-06 -1.04808e-07 -3.30922e-06 -0.025301 0.0300343 -0.203507)
(-1.08136e-06 2.88273e-06 -9.35273e-06 -0.025305 0.0300387 -0.203507)
(1.08911e-07 1.38859e-06 -1.00499e-05 -0.0252818 0.0300762 -0.203503)
(-1.16047e-06 -1.76873e-06 -1.9113e-05 -0.0252976 0.0300367 -0.203509)
(-1.50456e-06 -5.07982e-07 -2.42993e-05 -0.0252831 0.0300372 -0.203499)
(-3.17206e-06 2.45408e-06 -1.47171e-05 -0.0252611 0.0300675 -0.203487)
(-2.70503e-05 -5.76881e-06 -3.22944e-05 -0.0253208 0.0300566 -0.203492)
(-0.000236899 -8.62648e-05 -0.00021073 -0.0253032 0.0299901 -0.20342)
(-0.00195349 -0.000409785 -0.00166863 -0.0249658 0.0294441 -0.203761)
(-0.0177795 -0.000771011 -0.00858682 -0.0235918 0.0268128 -0.205726)
(-0.0860894 -0.0017753 -0.0504139 -0.0220443 0.0264232 -0.152211)
(-0.0887631 0.00139653 0.0521696 -0.013961 0.0165008 -0.151211)
(-0.0183774 0.000608387 0.00897711 -0.0148923 0.016409 -0.206554)
(-0.0020348 0.000319916 0.00181687 -0.0159501 0.0182155 -0.204508)
(-0.000260502 7.35583e-05 0.000232417 -0.0162041 0.0187471 -0.204184)
(-3.16234e-05 8.02167e-06 4.36531e-05 -0.0161947 0.0187892 -0.204247)
(-4.17572e-06 -1.77523e-06 2.41746e-05 -0.0162136 0.0188672 -0.204281)
(-1.44613e-06 -3.9577e-06 1.81792e-05 -0.0161697 0.0187973 -0.204257)
(-1.59414e-06 1.67991e-06 1.85795e-05 -0.016207 0.0187841 -0.204271)
(-8.88105e-07 -1.37462e-06 8.07195e-06 -0.0162006 0.0188548 -0.204281)
(-2.36202e-07 -2.86828e-06 3.19826e-07 -0.016201 0.0187321 -0.204256)
(-7.28715e-07 -1.06852e-06 5.29604e-06 -0.0161797 0.0187739 -0.204258)
(-8.86961e-07 4.41061e-07 8.24329e-06 -0.0162032 0.0187323 -0.204252)
(1.43034e-07 3.96262e-06 -1.08441e-06 -0.0162206 0.0187419 -0.204254)
(1.78176e-07 4.89817e-07 1.41019e-06 -0.0162183 0.0187957 -0.20427)
(-6.44839e-07 -2.41264e-06 5.57388e-07 -0.0162045 0.0187809 -0.20427)
(1.1135e-07 1.68263e-06 -2.09933e-06 -0.0162035 0.0187357 -0.204257)
(4.22104e-07 7.94124e-07 1.15003e-07 -0.0162184 0.0187958 -0.204272)
(-2.70858e-07 -3.42609e-06 8.56717e-07 -0.0162046 0.018781 -0.204269)
(-5.33568e-07 -1.23799e-06 -1.30879e-06 -0.0162042 0.0187299 -0.204252)
(-1.32401e-06 1.00487e-06 -3.97188e-06 -0.0162118 0.0187804 -0.204265)
(-7.60369e-07 2.83204e-06 -1.62619e-05 -0.016216 0.018782 -0.204265)
(1.68457e-07 1.31198e-06 -9.03128e-06 -0.0161978 0.0187896 -0.204263)
(-1.50918e-06 -7.07144e-07 -3.01249e-06 -0.0162054 0.0187815 -0.204271)
(-1.6829e-06 9.21378e-07 -2.46667e-05 -0.0161963 0.0188066 -0.204265)
(-3.40466e-06 3.81633e-07 -2.21204e-05 -0.0161905 0.018808 -0.204254)
(-3.22915e-05 -8.5985e-06 -3.3906e-05 -0.0162244 0.0187928 -0.204248)
(-0.000261321 -7.23721e-05 -0.000240969 -0.0161988 0.0186916 -0.204165)
(-0.00203453 -0.000316919 -0.0018184 -0.0159599 0.0182258 -0.204504)
(-0.018376 -0.000607074 -0.00897772 -0.0148928 0.0164088 -0.206551)
(-0.0887622 -0.00139561 -0.052165 -0.0139513 0.0165676 -0.151219)
(-0.0904186 0.000963554 0.0534522 -0.00882807 0.0102665 -0.15094)
(-0.0188131 0.000447741 0.00930789 -0.00930574 0.0100163 -0.207555)
(-0.00210174 0.000238139 0.0019338 -0.0101081 0.0113354 -0.20549)
(-0.000280176 5.8035e-05 0.000272385 -0.0103206 0.0116935 -0.205167)
(-3.67657e-05 6.76534e-06 4.54432e-05 -0.0103279 0.011787 -0.205248)
(-4.73819e-06 -4.71728e-07 1.56593e-05 -0.0103466 0.0117438 -0.205258)
(-1.11076e-06 -2.58657e-06 1.74033e-05 -0.010311 0.0117847 -0.205258)
(-1.58551e-06 -1.3168e-06 1.861e-05 -0.0103276 0.0117262 -0.205258)
(-8.89916e-07 -2.67423e-07 7.1865e-07 -0.0103377 0.0117339 -0.205259)
(-1.99408e-07 -1.77001e-07 7.29866e-06 -0.0103084 0.0117231 -0.205249)
(-1.03192e-06 -9.01338e-07 4.73761e-06 -0.0103166 0.0117782 -0.205261)
(-3.73524e-07 -1.60282e-06 -5.56643e-06 -0.0103135 0.0117223 -0.205242)
(6.22303e-07 2.06633e-06 7.40953e-06 -0.0103136 0.0116894 -0.205234)
(-4.18934e-07 5.54673e-07 8.32122e-06 -0.0103338 0.011734 -0.205255)
(-7.50934e-07 -8.13471e-07 -7.10286e-06 -0.0103264 0.0117255 -0.205257)
(4.55354e-07 1.17464e-06 -1.39346e-06 -0.0103099 0.0117257 -0.205249)
(1.1575e-08 -2.98261e-07 7.16964e-06 -0.0103338 0.011734 -0.205257)
(-5.37215e-07 -2.06648e-06 -7.29974e-06 -0.0103262 0.0117256 -0.205256)
(-1.09578e-07 -1.77696e-06 -1.51549e-06 -0.0103157 0.0117202 -0.205243)
(-8.33574e-07 -8.43102e-07 3.43482e-06 -0.0103238 0.0116821 -0.20524)
(-7.01334e-07 4.43248e-06 -8.08958e-06 -0.0103306 0.0116828 -0.20524)
(-5.02251e-07 2.17457e-06 -8.59876e-06 -0.0103287 0.0117895 -0.205263)
(-1.71678e-06 -1.28086e-06 -1.81184e-05 -0.0103266 0.0117255 -0.205258)
(-1.20333e-06 1.93333e-06 -2.44483e-05 -0.01032 0.0117323 -0.205249)
(-4.01383e-06 -1.44786e-06 -1.39958e-05 -0.0103167 0.011751 -0.205242)
(-3.70906e-05 -8.26098e-06 -4.37934e-05 -0.0103312 0.0116891 -0.205224)
(-0.000280408 -5.46222e-05 -0.00027336 -0.0103082 0.0116859 -0.205151)
(-0.00210163 -0.000236522 -0.00192734 -0.0101137 0.0113411 -0.205483)
(-0.0188124 -0.00044718 -0.00930898 -0.00930661 0.0100156 -0.207553)
(-0.0904149 -0.000963693 -0.0534503 -0.00883673 0.0102738 -0.150943)
(-0.091436 0.000612078 0.0543005 -0.00557426 0.00642233 -0.150922)
(-0.019099 0.000310684 0.00957063 -0.00577499 0.00616849 -0.208353)
(-0.00215195 0.000172433 0.00202173 -0.00638586 0.00713153 -0.206297)
(-0.000295029 4.1999e-05 0.00028436 -0.00654362 0.00734609 -0.205969)
(-4.01541e-05 5.59225e-06 4.77579e-05 -0.00656454 0.00738176 -0.206047)
(-5.31535e-06 1.25544e-06 2.21987e-05 -0.00656406 0.00738547 -0.206062)
(-1.37135e-06 -1.7303e-06 1.63077e-05 -0.00655936 0.00743081 -0.206069)
(-1.3013e-06 -2.18273e-06 1.16585e-05 -0.00655228 0.00737398 -0.206064)
(-7.33858e-07 1.22499e-06 7.55175e-06 -0.00655804 0.00737971 -0.206064)
(-4.25751e-07 -2.43419e-07 6.6015e-06 -0.0065461 0.00742135 -0.206068)
(-1.01407e-06 -1.44189e-06 4.51933e-06 -0.00655647 0.00737771 -0.206062)
(-2.30397e-07 1.34122e-06 -5.1426e-06 -0.00654293 0.00738212 -0.206053)
(6.49692e-07 7.71864e-07 1.13796e-06 -0.00653515 0.00742508 -0.206055)
(-3.56153e-07 -1.98233e-06 8.17379e-06 -0.00655532 0.00737894 -0.20606)
(-6.70394e-07 9.30922e-07 -3.94513e-07 -0.0065529 0.00737396 -0.206062)
(1.83662e-07 8.72364e-07 -9.17685e-07 -0.00654685 0.00742335 -0.206068)
(-1.05999e-07 -1.73164e-06 8.22302e-08 -0.00655547 0.00737879 -0.206063)
(-5.89607e-07 -1.20489e-06 -9.4314e-07 -0.00655167 0.00737426 -0.206061)
(-3.68252e-07 -4.51208e-07 -8.7847e-06 -0.00654776 0.00738039 -0.206053)
(-2.5492e-07 -8.92633e-07 -1.04221e-05 -0.00653712 0.00737129 -0.206049)
(-1.17813e-07 2.05896e-06 -3.05764e-07 -0.00653464 0.00733358 -0.206041)
(-7.70136e-07 1.64297e-06 -1.29087e-06 -0.00656341 0.00738357 -0.206062)
(-1.90536e-06 8.5922e-07 -1.11139e-05 -0.00655169 0.00737419 -0.206065)
(-1.5828e-06 3.37941e-06 -2.39227e-05 -0.00655324 0.0074275 -0.206067)
(-4.57237e-06 -1.64358e-06 -2.79321e-05 -0.00654885 0.00743456 -0.206056)
(-3.99711e-05 -8.41417e-06 -3.93431e-05 -0.00654082 0.00737559 -0.206032)
(-0.000295207 -4.08291e-05 -0.000277999 -0.00654017 0.00735042 -0.205955)
(-0.00215213 -0.000171568 -0.00202189 -0.00638936 0.00713406 -0.20629)
(-0.0190988 -0.000310378 -0.00957179 -0.00577567 0.00616751 -0.208352)
(-0.091434 -0.000612529 -0.0542998 -0.00557886 0.00642868 -0.150924)
(-0.0920626 0.00036931 0.0548262 -0.00352032 0.00403432 -0.150949)
(-0.0192742 0.000204207 0.00974762 -0.00357927 0.00383206 -0.208881)
(-0.00218602 0.000122198 0.0020869 -0.00403245 0.00445567 -0.206829)
(-0.000306048 3.12021e-05 0.000299377 -0.0041441 0.00464111 -0.206511)
(-4.27951e-05 4.4712e-06 4.9757e-05 -0.00416177 0.00466868 -0.20659)
(-5.82702e-06 8.45665e-07 2.20194e-05 -0.00415991 0.00467026 -0.206606)
(-1.5115e-06 -1.11473e-06 1.54972e-05 -0.0041663 0.00467394 -0.206609)
(-1.12938e-06 -1.2081e-06 1.12828e-05 -0.00415291 0.00466416 -0.20661)
(-6.77275e-07 6.12091e-07 7.47776e-06 -0.00415584 0.00466718 -0.206609)
(-6.6795e-07 -1.84954e-07 6.37116e-06 -0.00415854 0.00466844 -0.206609)
(-7.38646e-07 -1.92479e-07 -2.54394e-06 -0.00415539 0.00466798 -0.206606)
(1.57343e-07 2.12319e-06 1.69105e-06 -0.00414521 0.0046674 -0.206596)
(1.73333e-07 -6.5011e-08 8.44284e-06 -0.00415678 0.00471343 -0.206606)
(-5.09376e-07 -2.81715e-06 1.20646e-06 -0.00415461 0.00466765 -0.206606)
(-3.47574e-07 4.47809e-07 -4.63703e-07 -0.00415736 0.00466454 -0.206606)
(5.27492e-08 8.80259e-07 -5.85603e-07 -0.004159 0.00467012 -0.206608)
(-4.14742e-07 -1.10334e-06 -1.15097e-07 -0.00415461 0.00466749 -0.206608)
(-3.88614e-07 -1.11582e-06 -8.13526e-06 -0.00415369 0.00466423 -0.206606)
(1.17501e-08 8.8153e-07 -2.19326e-06 -0.00414149 0.00463007 -0.206588)
(-3.59567e-07 1.77261e-06 -3.65633e-06 -0.00415235 0.00470551 -0.206603)
(-1.88798e-07 2.32301e-07 -6.21744e-06 -0.00413649 0.00470546 -0.206598)
(-7.22645e-07 -9.10252e-07 -9.07463e-07 -0.00415932 0.00467061 -0.206606)
(-1.65791e-06 5.00551e-07 -1.12455e-05 -0.00415262 0.00466474 -0.20661)
(-1.53992e-06 3.31839e-06 -1.63666e-05 -0.0041629 0.00467116 -0.206607)
(-5.71074e-06 4.09704e-07 -2.11858e-05 -0.00416518 0.00471893 -0.206606)
(-4.28551e-05 -7.86632e-06 -5.54853e-05 -0.00415129 0.00470774 -0.206587)
(-0.000305569 -3.21436e-05 -0.000299427 -0.00413575 0.00460388 -0.206487)
(-0.00218609 -0.000121162 -0.00207993 -0.00403504 0.0044564 -0.206822)
(-0.0192746 -0.000203756 -0.0097488 -0.0035797 0.0038308 -0.20888)
(-0.0920622 -0.000369844 -0.0548264 -0.00352048 0.00403905 -0.150951)
(-0.0924478 0.000216488 0.0551395 -0.0022304 0.00253417 -0.150973)
(-0.0193771 0.00012985 0.00986313 -0.00222682 0.00239067 -0.209205)
(-0.00220774 8.46535e-05 0.00213367 -0.00254465 0.00280432 -0.207164)
(-0.000314024 2.24727e-05 0.000310458 -0.00263041 0.00293532 -0.206851)
(-4.47796e-05 3.44609e-06 5.13471e-05 -0.0026478 0.00295509 -0.20693)
(-6.23705e-06 8.64939e-07 2.21559e-05 -0.00264314 0.00295674 -0.206949)
(-1.62533e-06 -6.71467e-07 1.49498e-05 -0.00264616 0.00295919 -0.206951)
(-1.02159e-06 -6.89283e-07 1.07856e-05 -0.00263876 0.00295366 -0.206953)
(-6.36363e-07 3.15239e-07 7.6219e-06 -0.00264025 0.00295521 -0.206952)
(-5.6312e-07 -1.05989e-07 6.25782e-06 -0.00264195 0.00295724 -0.206951)
(-5.95608e-07 1.04286e-06 3.97193e-06 -0.00264043 0.00295612 -0.206948)
(-8.77704e-08 1.1346e-06 1.98479e-06 -0.00264047 0.00299576 -0.206947)
(-1.20313e-07 -1.13941e-06 1.8576e-06 -0.00264926 0.00296183 -0.206947)
(-3.67509e-07 -2.48352e-06 8.56952e-07 -0.00263978 0.00295632 -0.206949)
(-7.20247e-08 2.34271e-07 -2.7079e-07 -0.00263663 0.00291909 -0.206942)
(-3.9094e-08 1.47638e-06 -4.1514e-07 -0.00264219 0.00295866 -0.20695)
(-5.47311e-07 -9.49128e-07 -5.70801e-07 -0.00263972 0.00295634 -0.206951)
(-2.9749e-07 1.19446e-06 -8.26922e-06 -0.00264288 0.00295369 -0.206947)
(2.46425e-07 -1.94757e-07 -2.11034e-06 -0.00262508 0.00299558 -0.206939)
(-2.96257e-07 2.34733e-09 2.98582e-06 -0.00264198 0.00292083 -0.206937)
(-5.48384e-07 1.14432e-06 -5.76241e-06 -0.00264577 0.00299566 -0.206946)
(-7.73857e-07 -1.33974e-06 -7.39537e-06 -0.00264307 0.00295688 -0.206948)
(-1.30917e-06 3.15069e-07 -1.11026e-05 -0.00263866 0.00295429 -0.206952)
(-1.54251e-06 1.80188e-06 -1.56174e-05 -0.00264469 0.00295793 -0.20695)
(-6.36977e-06 7.23484e-08 -2.13359e-05 -0.00265402 0.00296352 -0.206946)
(-4.49643e-05 -3.91465e-06 -5.76698e-05 -0.00264694 0.00295669 -0.206927)
(-0.00031334 -2.33437e-05 -0.000310363 -0.002624 0.00297302 -0.206835)
(-0.00220772 -8.54821e-05 -0.00212649 -0.00254768 0.00280368 -0.207156)
(-0.019378 -0.000128822 -0.00986419 -0.00222701 0.0023893 -0.209204)
(-0.0924488 -0.000217063 -0.0551409 -0.00222576 0.002538 -0.150976)
(-0.0926879 0.000125426 0.055322 -0.00141166 0.00154503 -0.150985)
(-0.0194361 8.13479e-05 0.00993524 -0.00139774 0.00148835 -0.2094)
(-0.00222108 5.72052e-05 0.00216642 -0.0016161 0.00175656 -0.207369)
(-0.000319628 1.5102e-05 0.000318713 -0.00168075 0.00184764 -0.20706)
(-4.61621e-05 2.54134e-06 5.25658e-05 -0.00168905 0.00182703 -0.207136)
(-6.54652e-06 1.48879e-06 2.21864e-05 -0.0016915 0.00186294 -0.207161)
(-1.75807e-06 -3.38781e-07 1.45817e-05 -0.00169228 0.00186396 -0.207163)
(-9.55561e-07 -3.93205e-07 1.0478e-05 -0.00168841 0.00186165 -0.207165)
(-6.06471e-07 1.75032e-07 7.69045e-06 -0.00168917 0.00186259 -0.207164)
(-5.3687e-07 -1.19549e-07 6.15933e-06 -0.00169007 0.00186372 -0.207162)
(-5.09587e-07 1.4297e-07 3.88949e-06 -0.00169022 0.00186293 -0.20716)
(-1.61285e-07 6.67237e-07 2.33844e-06 -0.00170058 0.0018655 -0.207157)
(-4.25575e-07 -1.59908e-07 1.89314e-06 -0.00169432 0.00186703 -0.207158)
(-3.14326e-07 -8.56155e-07 -6.26547e-06 -0.00168899 0.00186382 -0.20716)
(3.64154e-07 1.34816e-07 -1.35968e-07 -0.00167798 0.00186192 -0.207153)
(-1.45736e-07 3.51852e-07 6.48128e-06 -0.00169024 0.00186502 -0.207161)
(-5.37538e-07 -1.44664e-06 -8.5729e-07 -0.0016889 0.00186391 -0.207162)
(-2.92153e-07 1.78052e-06 -1.57458e-06 -0.00168572 0.00182755 -0.207154)
(-1.43523e-07 1.20351e-06 -8.71976e-06 -0.00169191 0.00190329 -0.207157)
(-2.15851e-08 -2.15085e-06 -3.53838e-06 -0.00168102 0.00186279 -0.207148)
(-3.82384e-07 4.45684e-08 1.11466e-06 -0.00169446 0.00183206 -0.20715)
(-9.30207e-07 2.90593e-07 -7.53725e-06 -0.00169253 0.00186262 -0.207159)
(-1.18002e-06 3.30462e-07 -1.09336e-05 -0.00168845 0.00186222 -0.207164)
(-1.58012e-06 9.50647e-07 -1.50269e-05 -0.00169176 0.00186351 -0.207162)
(-6.65623e-06 -2.08332e-07 -2.1311e-05 -0.00169676 0.00186682 -0.207158)
(-4.64972e-05 -2.96992e-06 -5.26232e-05 -0.0016948 0.00186257 -0.207137)
(-0.000319161 -1.68451e-05 -0.000318827 -0.00168719 0.001851 -0.207044)
(-0.00222085 -5.76419e-05 -0.00216589 -0.00162165 0.0017553 -0.207362)
(-0.0194374 -7.89733e-05 -0.00993594 -0.00139797 0.00148701 -0.209399)
(-0.092686 -0.000125777 -0.0553253 -0.00141518 0.00158664 -0.150994)
(-0.0928346 7.20588e-05 0.0554222 -0.000899446 0.000975104 -0.150995)
(-0.0194697 4.81773e-05 0.00998889 -0.000892822 0.000914727 -0.209518)
(-0.00222926 3.73926e-05 0.0021886 -0.00104223 0.00108453 -0.207496)
(-0.000323429 1.09461e-05 0.000317922 -0.00109053 0.00114566 -0.207188)
(-4.68991e-05 1.62573e-06 5.34059e-05 -0.00108917 0.00115449 -0.207264)
(-6.76092e-06 4.29389e-07 2.89194e-05 -0.00110058 0.0011557 -0.207291)
(-1.98148e-06 -5.97432e-08 1.4382e-05 -0.00109938 0.00115663 -0.207294)
(-9.24254e-07 -2.1018e-07 1.0307e-05 -0.00109736 0.00115576 -0.207296)
(-5.95061e-07 9.68276e-08 7.69729e-06 -0.00109776 0.00115642 -0.207295)
(-5.78373e-07 -2.32061e-07 6.0428e-06 -0.00109828 0.00115696 -0.207293)
(-4.39601e-07 -8.73053e-07 3.97577e-06 -0.00109995 0.0011559 -0.20729)
(-8.53802e-08 5.19379e-07 2.57776e-06 -0.00109897 0.00112437 -0.207283)
(-3.82308e-07 9.02325e-07 1.81027e-06 -0.00110047 0.00115869 -0.207289)
(-3.42488e-07 3.91592e-07 1.00279e-07 -0.00109792 0.00115755 -0.207291)
(1.59797e-07 6.19004e-08 -5.72199e-08 -0.00109968 0.00119209 -0.207288)
(-3.42591e-07 -6.02471e-07 2.49037e-08 -0.00109885 0.00115812 -0.207291)
(-3.28413e-07 -1.90519e-07 -7.74267e-06 -0.0010976 0.00115767 -0.207292)
(1.97298e-07 8.17487e-07 -1.35109e-06 -0.00108545 0.00115643 -0.207284)
(-4.53241e-07 8.47991e-07 4.56036e-06 -0.00110605 0.00116089 -0.207287)
(-4.62233e-07 -4.93239e-07 -1.02458e-05 -0.00110089 0.0011917 -0.207285)
(-4.10296e-08 -1.16813e-06 -5.39265e-06 -0.00108988 0.00115896 -0.20728)
(-7.48858e-07 -3.9798e-07 -1.01344e-06 -0.00110356 0.0011557 -0.207289)
(-1.24201e-06 5.32555e-07 -1.07431e-05 -0.00109748 0.00115634 -0.207294)
(-1.65666e-06 4.78204e-07 -1.4732e-05 -0.00109947 0.00115629 -0.207293)
(-7.07657e-06 -5.47112e-07 -2.14211e-05 -0.00110175 0.00115776 -0.20729)
(-4.76509e-05 -2.54015e-06 -6.02577e-05 -0.00110451 0.00115465 -0.207267)
(-0.000322702 -1.21126e-05 -0.000324918 -0.00108501 0.0011139 -0.207168)
(-0.00222842 -3.74311e-05 -0.00218164 -0.00104003 0.00104923 -0.207484)
(-0.0194716 -4.65405e-05 -0.00997915 -0.000893297 0.000913466 -0.209517)
(-0.0928303 -7.22541e-05 -0.0554325 -0.000912547 0.000977209 -0.151008)
(-0.0929158 4.04478e-05 0.0554895 -0.000610076 0.000616334 -0.151011)
(-0.0194891 2.67466e-05 0.0100043 -0.000591715 0.000540799 -0.209587)
(-0.00223334 2.30908e-05 0.00220291 -0.000695784 0.000643445 -0.207572)
(-0.000325921 7.71561e-06 0.000328495 -0.000732664 0.00068205 -0.207267)
(-4.78812e-05 6.9248e-07 5.38716e-05 -0.000743096 0.000721909 -0.207347)
(-6.84647e-06 -3.9351e-07 2.23837e-05 -0.000744082 0.000687986 -0.20737)
(-1.89281e-06 3.31784e-07 1.43283e-05 -0.000739471 0.000689021 -0.207374)
(-9.23965e-07 -9.59636e-08 1.01956e-05 -0.000738411 0.000688665 -0.207375)
(-6.10893e-07 5.09216e-08 7.68744e-06 -0.000738652 0.000689169 -0.207375)
(-7.30872e-07 -4.97912e-07 5.85587e-06 -0.00073896 0.00068956 -0.207373)
(-3.54511e-07 9.75779e-08 -2.67077e-06 -0.000743458 0.000688305 -0.207369)
(2.19031e-07 6.44719e-07 2.78603e-06 -0.000728979 0.00069029 -0.207361)
(-4.45796e-07 -6.55663e-08 8.46206e-06 -0.000740101 0.000690317 -0.207369)
(-4.90889e-07 -8.15539e-07 1.07742e-07 -0.000738938 0.000690094 -0.207371)
(1.84779e-07 -2.27439e-08 -3.08498e-09 -0.000742102 0.000657029 -0.207364)
(-2.0294e-07 7.54859e-07 3.16384e-08 -0.000740142 0.000690113 -0.20737)
(-2.95984e-07 1.13191e-06 -1.19655e-06 -0.000738793 0.000690238 -0.207372)
(-8.92586e-08 3.29139e-07 -1.16193e-06 -0.000736054 0.000724742 -0.207369)
(-3.64974e-07 -1.73081e-06 -2.05884e-06 -0.000742931 0.000691594 -0.207367)
(-3.77239e-07 9.3325e-07 -3.70346e-06 -0.00074195 0.000656293 -0.207362)
(-3.43263e-07 -5.66623e-07 -5.39478e-06 -0.000737965 0.000725403 -0.207365)
(-6.16913e-07 -1.36039e-06 -7.69909e-06 -0.000737478 0.000654401 -0.207365)
(-1.03533e-06 1.15535e-06 -1.0636e-05 -0.000738494 0.000689218 -0.207373)
(-1.80271e-06 2.13423e-07 -1.46147e-05 -0.000740231 0.000688343 -0.207373)
(-7.23776e-06 -1.2034e-06 -2.15214e-05 -0.000740578 0.000689269 -0.20737)
(-4.84468e-05 7.05976e-08 -6.08211e-05 -0.000737561 0.000653203 -0.207343)
(-0.000325268 -5.94785e-06 -0.000336137 -0.000722381 0.000718255 -0.207251)
(-0.00223252 -2.48967e-05 -0.00219626 -0.000683908 0.000642459 -0.207559)
(-0.0194907 -2.75787e-05 -0.00999723 -0.000592542 0.000539254 -0.209586)
(-0.0929165 -4.03143e-05 -0.055494 -0.000608396 0.000578222 -0.151018)
(-0.0929643 2.08878e-05 0.0555232 -0.000438875 0.000266819 -0.151015)
(-0.0194995 1.52173e-05 0.0100182 -0.000422761 0.000283927 -0.209626)
(-0.00223573 1.24623e-05 0.00221139 -0.000500103 0.00033867 -0.207615)
(-0.000327434 2.86137e-06 0.000330925 -0.000529822 0.000359849 -0.207311)
(-4.82859e-05 -4.03202e-07 5.4153e-05 -0.000542293 0.00032952 -0.207389)
(-6.80803e-06 1.22318e-06 2.24458e-05 -0.000532724 0.000329161 -0.207411)
(-1.93925e-06 1.10646e-06 1.43077e-05 -0.000535058 0.000363568 -0.20742)
(-9.78878e-07 -2.54271e-08 1.01294e-05 -0.000534643 0.000363515 -0.207421)
(-6.71378e-07 2.32436e-08 7.69264e-06 -0.000534815 0.000363897 -0.20742)
(-5.71373e-07 -1.15294e-06 5.73177e-06 -0.000534892 0.000364235 -0.207418)
(-2.08363e-07 1.14504e-06 3.97973e-06 -0.000532415 0.000329721 -0.207411)
(-9.67684e-08 1.20493e-06 2.90264e-06 -0.000534005 0.000399053 -0.207411)
(-6.71224e-07 -1.10274e-06 1.80414e-06 -0.000536046 0.000364557 -0.207415)
(-3.38959e-07 -8.77096e-09 -6.47509e-06 -0.000535068 0.000364688 -0.207416)
(4.84676e-07 -1.67413e-07 -2.21586e-08 -0.000527805 0.000364867 -0.207407)
(-1.24719e-07 1.27226e-08 6.64178e-06 -0.00053735 0.000363826 -0.207415)
(-4.29774e-07 6.25363e-07 -1.08965e-06 -0.000535253 0.000364782 -0.207417)
(-3.5996e-07 1.17161e-07 -1.13996e-06 -0.000540321 0.000365801 -0.207415)
(-3.23501e-07 -2.70392e-07 -8.76918e-06 -0.000536941 0.000364555 -0.207414)
(-2.09171e-07 4.34325e-07 -3.61827e-06 -0.000525971 0.000364708 -0.207406)
(-4.7695e-07 -3.87932e-07 -5.50858e-06 -0.000540644 0.00036575 -0.207412)