/*--------------------------------*- C++ -*----------------------------------*\
| =========                 |                                                 |
| \\      /  F ield         | OpenFOAM: The Open Source CFD Toolbox           |
|  \\    /   O peration     | Version:  2106                                  |
|   \\  /    A nd           | Website:  www.openfoam.com                      |
|    \\/     M anipulation  |                                                 |
\*---------------------------------------------------------------------------*/
FoamFile
{
    version     2.0;
    format      ascii;
    arch        "LSB;label=32;scalar=64";
    class       volSymmTensorField;
    location    "245";
    object      sigma;
}
// * * * * * * * * * * * * * * * * * * * * * * * * * * * * * * * * * * * * * //

dimensions      [1 -1 -2 0 0 0 0];

internalField   nonuniform List<symmTensor> 
9000
(
(5.39568e+07 -137653 2.48787e+07 2.21968e+07 3.17066e+07 8.5165e+07)
(9.63644e+07 277133 4.85617e+06 2.4276e+07 3.36216e+07 6.91201e+07)
(1.10999e+08 173363 1.33e+06 2.6123e+07 3.57045e+07 8.13921e+07)
(1.12803e+08 26277.7 232913 2.6262e+07 3.61635e+07 8.34599e+07)
(1.13021e+08 -3896.61 19725.4 2.62993e+07 3.61784e+07 8.35385e+07)
(1.13036e+08 -940.355 9030.92 2.6375e+07 3.60735e+07 8.34007e+07)
(1.1305e+08 22.2973 9193.97 2.63113e+07 3.61617e+07 8.35018e+07)
(1.13043e+08 -2973.03 -527.096 2.63837e+07 3.60734e+07 8.34039e+07)
(1.13043e+08 3297.37 13230.6 2.63828e+07 3.60736e+07 8.3406e+07)
(1.13054e+08 3365.01 -6250.37 2.63104e+07 3.6168e+07 8.35243e+07)
(1.13064e+08 -3064.91 -23540.8 2.63722e+07 3.61096e+07 8.34764e+07)
(1.13057e+08 -260.013 18789.6 2.6444e+07 3.60187e+07 8.33718e+07)
(1.13052e+08 2625.73 25060.7 2.63088e+07 3.61646e+07 8.35168e+07)
(1.13046e+08 388.374 -16071 2.62976e+07 3.61658e+07 8.35043e+07)
(1.13067e+08 496.081 2005.56 2.63683e+07 3.61137e+07 8.34858e+07)
(1.13059e+08 -624.378 15237.4 2.63091e+07 3.61703e+07 8.3532e+07)
(1.13046e+08 146.62 -17955.6 2.6298e+07 3.61657e+07 8.35027e+07)
(1.13065e+08 426.454 537.025 2.63672e+07 3.61142e+07 8.34864e+07)
(1.13058e+08 -3384.33 -10464.5 2.63137e+07 3.61666e+07 8.35241e+07)
(1.13053e+08 -3252.82 -10537.1 2.6445e+07 3.60171e+07 8.33627e+07)
(1.13047e+08 2998.02 22101.4 2.63867e+07 3.6073e+07 8.34079e+07)
(1.1305e+08 3251.6 3886.05 2.6305e+07 3.61658e+07 8.35149e+07)
(1.13054e+08 -3055.36 -14072.1 2.63094e+07 3.61678e+07 8.35192e+07)
(1.13043e+08 -390.632 -10350.6 2.63791e+07 3.6075e+07 8.34082e+07)
(1.13043e+08 826.824 -9551.01 2.63071e+07 3.61611e+07 8.34976e+07)
(1.13012e+08 886.525 -45407.8 2.63719e+07 3.60873e+07 8.34358e+07)
(1.12809e+08 -23739.5 -227739 2.63272e+07 3.61016e+07 8.34022e+07)
(1.10987e+08 -173287 -1.31111e+06 2.61141e+07 3.56982e+07 8.13631e+07)
(9.63629e+07 -276641 -4.85408e+06 2.42759e+07 3.36216e+07 6.91211e+07)
(5.39558e+07 137637 -2.48792e+07 2.21955e+07 3.17055e+07 8.51641e+07)
(4.17503e+07 -7930.76 2.40095e+07 2.84913e+07 3.52083e+07 1.26326e+07)
(7.28593e+07 351502 4.15429e+06 2.80683e+07 3.70437e+07 -8.9273e+06)
(8.60094e+07 223341 799596 3.05609e+07 3.93663e+07 -1.41043e+06)
(8.73514e+07 36772.5 118257 3.04759e+07 3.99602e+07 -532623)
(8.74961e+07 -3092.86 14626.5 3.05151e+07 3.99788e+07 -502459)
(8.76144e+07 -1842.59 13064.2 3.07294e+07 3.99489e+07 -396506)
(8.75262e+07 356.167 9847.54 3.05482e+07 3.99512e+07 -497116)
(8.76295e+07 -626.101 -3950.47 3.07555e+07 3.99499e+07 -382853)
(8.76287e+07 1048.99 14818.6 3.0752e+07 3.99492e+07 -383182)
(8.75255e+07 3618.52 14620.3 3.05413e+07 3.99605e+07 -494706)
(8.75848e+07 1574.05 -7040.36 3.06472e+07 4.00508e+07 -416619)
(8.76876e+07 -3031.32 512.879 3.0854e+07 4.00444e+07 -302512)
(8.75246e+07 -3506.67 9977.8 3.05378e+07 3.99546e+07 -494317)
(8.75447e+07 3167.52 688.888 3.05727e+07 3.98802e+07 -467655)
(8.75796e+07 1945.89 -244.561 3.06359e+07 4.00567e+07 -422501)
(8.75238e+07 -4496.78 -886.487 3.05358e+07 3.99634e+07 -495764)
(8.75449e+07 2597.82 319.624 3.05735e+07 3.98803e+07 -468372)
(8.75787e+07 1927.41 -288.074 3.06341e+07 4.00575e+07 -423187)
(8.75294e+07 -1130.72 -10917.8 3.05481e+07 3.99585e+07 -489812)
(8.76889e+07 -1013.94 -12332.6 3.08599e+07 4.00432e+07 -303196)
(8.76341e+07 -2032.65 5178.96 3.07616e+07 3.99489e+07 -376069)
(8.7518e+07 1017.14 4999.04 3.0527e+07 3.99567e+07 -503960)
(8.75235e+07 -567.431 -16505.4 3.05397e+07 3.99609e+07 -499088)
(8.7623e+07 -848.983 -8662.33 3.07416e+07 3.99506e+07 -388842)
(8.75182e+07 1726.07 -11881.3 3.05357e+07 3.99503e+07 -502327)
(8.75999e+07 4840.86 -23622.5 3.07235e+07 3.99721e+07 -385810)
(8.74174e+07 -38031.4 -107658 3.05961e+07 4.00458e+07 -446803)
(8.60337e+07 -225646 -801383 3.06044e+07 3.92807e+07 -1.37771e+06)
(7.28608e+07 -349673 -4.15505e+06 2.80703e+07 3.70434e+07 -8.9243e+06)
(4.17494e+07 7900.16 -2.40099e+07 2.84877e+07 3.52053e+07 1.26321e+07)
(4.53338e+07 603191 2.41454e+07 5.5001e+07 3.00404e+07 5.62074e+06)
(8.00819e+07 448975 4.0709e+06 5.75357e+07 3.13177e+07 -1.55585e+07)
(9.39224e+07 268242 710135 6.21481e+07 3.34188e+07 -8.2653e+06)
(9.53071e+07 50805.8 87238.4 6.23174e+07 3.40291e+07 -7.55481e+06)
(9.54444e+07 -285.357 26328.1 6.23659e+07 3.40532e+07 -7.53344e+06)
(9.55263e+07 -2399.36 14147.8 6.24918e+07 3.41137e+07 -7.43435e+06)
(9.5468e+07 1255.54 9594.17 6.23918e+07 3.4027e+07 -7.52297e+06)
(9.55227e+07 2030.7 8880.94 6.24904e+07 3.41624e+07 -7.44965e+06)
(9.55194e+07 -1509.43 1256.86 6.24814e+07 3.41614e+07 -7.45257e+06)
(9.54716e+07 -1347.63 1926.6 6.23945e+07 3.40364e+07 -7.52067e+06)
(9.54808e+07 1539.57 6849.61 6.24091e+07 3.40231e+07 -7.50287e+06)
(9.5532e+07 -1321.22 393.651 6.25011e+07 3.41525e+07 -7.42988e+06)
(9.54902e+07 -1693.77 -10958.3 6.2422e+07 3.39841e+07 -7.4881e+06)
(9.55119e+07 1751.65 290.722 6.247e+07 3.40354e+07 -7.4711e+06)
(9.54767e+07 303.352 6422.37 6.24031e+07 3.40298e+07 -7.50922e+06)
(9.54687e+07 -417.592 -8136.34 6.23907e+07 3.40393e+07 -7.5235e+06)
(9.55107e+07 188.221 869.285 6.24693e+07 3.40356e+07 -7.47301e+06)
(9.54775e+07 34.9681 6975.36 6.24026e+07 3.40304e+07 -7.50884e+06)
(9.54734e+07 1188.34 2933.57 6.23991e+07 3.40345e+07 -7.5166e+06)
(9.55336e+07 1524.73 1150.42 6.25058e+07 3.41524e+07 -7.42947e+06)
(9.55265e+07 -2851.01 -8456.58 6.24958e+07 3.41613e+07 -7.44287e+06)
(9.54838e+07 -1296.25 -8589.09 6.24109e+07 3.39856e+07 -7.49903e+06)
(9.54693e+07 2634.32 -3507.77 6.23938e+07 3.40373e+07 -7.52446e+06)
(9.55146e+07 -2031.75 -7838.92 6.24734e+07 3.41619e+07 -7.45744e+06)
(9.548e+07 2009.91 -12346.1 6.2409e+07 3.39792e+07 -7.49768e+06)
(9.54978e+07 2096.15 -21201 6.24597e+07 3.41822e+07 -7.45712e+06)
(9.53239e+07 -53029.4 -96733.8 6.23457e+07 3.40119e+07 -7.52633e+06)
(9.39685e+07 -267722 -712658 6.22324e+07 3.34119e+07 -8.20746e+06)
(8.00853e+07 -448917 -4.06501e+06 5.75395e+07 3.13176e+07 -1.55534e+07)
(4.53319e+07 -603238 -2.41457e+07 5.49931e+07 3.00368e+07 5.61901e+06)
(4.97614e+07 935099 2.4981e+07 7.38582e+07 2.11318e+07 1.24559e+07)
(8.85099e+07 453573 4.2113e+06 7.81124e+07 2.183e+07 -8.60984e+06)
(1.03353e+08 255372 771610 8.41301e+07 2.3556e+07 -645542)
(1.04867e+08 51916.2 97535.8 8.45172e+07 2.40102e+07 161989)
(1.05016e+08 -112.389 18400.8 8.45649e+07 2.40357e+07 184049)
(1.05066e+08 -3007.29 14097.8 8.46348e+07 2.3986e+07 233539)
(1.05053e+08 654.423 14256.2 8.46062e+07 2.39808e+07 214709)
(1.05035e+08 467.633 6609.17 8.45818e+07 2.40209e+07 186103)
(1.05047e+08 202.78 3351.35 8.45957e+07 2.39856e+07 206753)
(1.05044e+08 248.29 3557.49 8.45932e+07 2.40228e+07 195363)
(1.05046e+08 -843.594 4356.89 8.45984e+07 2.40152e+07 201610)
(1.05041e+08 564.109 -4556.41 8.45887e+07 2.40151e+07 196842)
(1.05071e+08 2880.74 -1759.59 8.46414e+07 2.40202e+07 230346)
(1.05054e+08 204.261 5306.55 8.46158e+07 2.4105e+07 203356)
(1.05046e+08 -1736.94 -327.795 8.46e+07 2.40214e+07 198807)
(1.05042e+08 2156 -1168.56 8.45906e+07 2.40258e+07 192928)
(1.05052e+08 -352.973 662.749 8.46138e+07 2.41053e+07 200647)
(1.05047e+08 -2209.59 250.071 8.46001e+07 2.40216e+07 199679)
(1.05045e+08 -761.17 632.149 8.45956e+07 2.40217e+07 198020)
(1.05041e+08 -191.268 -1016.57 8.45905e+07 2.40156e+07 195681)
(1.05039e+08 636.326 -11007 8.45851e+07 2.40204e+07 191522)
(1.05065e+08 633.776 -6200.74 8.46312e+07 2.40213e+07 221554)
(1.05043e+08 -813.877 -63.4062 8.45943e+07 2.40245e+07 193018)
(1.05044e+08 -1824.71 -12868 8.45912e+07 2.39851e+07 204906)
(1.05074e+08 2410.01 -12373.4 8.46465e+07 2.39811e+07 244935)
(1.05013e+08 -343.808 -15620.8 8.45576e+07 2.40351e+07 182591)
(1.04876e+08 -50481.5 -98122.8 8.4533e+07 2.39992e+07 177222)
(1.03366e+08 -254060 -773291 8.41568e+07 2.36318e+07 -631116)
(8.8513e+07 -456116 -4.21201e+06 7.81155e+07 2.18301e+07 -8.6055e+06)
(4.97684e+07 -935126 -2.49807e+07 7.38725e+07 2.10954e+07 1.24766e+07)
(5.26183e+07 916287 2.60115e+07 8.56371e+07 1.36326e+07 1.84967e+07)
(9.39405e+07 397048 4.42438e+06 9.09428e+07 1.38319e+07 -3.01422e+06)
(1.09642e+08 212675 859581 9.77798e+07 1.51834e+07 5.53714e+06)
(1.11306e+08 44641.1 108119 9.83745e+07 1.54776e+07 6.48698e+06)
(1.11485e+08 3067.77 18213.7 9.84437e+07 1.54739e+07 6.53134e+06)
(1.11512e+08 -1937.31 8992.82 9.84805e+07 1.55471e+07 6.53014e+06)
(1.11527e+08 -1565.38 13531.6 9.84927e+07 1.54601e+07 6.55915e+06)
(1.11497e+08 1056.09 5820.29 9.84457e+07 1.54965e+07 6.51394e+06)
(1.11514e+08 3.10315 3947.11 9.84749e+07 1.5496e+07 6.53483e+06)
(1.11501e+08 -1148.35 8363.83 9.84474e+07 1.5493e+07 6.52031e+06)
(1.11515e+08 -819.859 3261.66 9.84706e+07 1.5461e+07 6.54319e+06)
(1.11499e+08 2262.27 223.872 9.84456e+07 1.54929e+07 6.51992e+06)
(1.11502e+08 2178.14 -1228.09 9.84541e+07 1.55422e+07 6.518e+06)
(1.11493e+08 -957.279 554.775 9.84315e+07 1.55036e+07 6.50907e+06)
(1.11503e+08 -1046.88 302.296 9.84543e+07 1.54938e+07 6.52176e+06)
(1.11499e+08 1280.59 -1478.19 9.84441e+07 1.54954e+07 6.5177e+06)
(1.11491e+08 -193.497 379.735 9.84298e+07 1.55036e+07 6.50671e+06)
(1.11504e+08 -1549.59 704.729 9.84546e+07 1.54938e+07 6.52248e+06)
(1.11501e+08 -774.906 -275.637 9.84475e+07 1.54922e+07 6.52213e+06)
(1.115e+08 -54.0666 -1707.1 9.84488e+07 1.54936e+07 6.51904e+06)
(1.11498e+08 1487.09 -4824.72 9.8445e+07 1.54958e+07 6.5173e+06)
(1.11512e+08 716.32 -5184.38 9.84701e+07 1.55152e+07 6.53257e+06)
(1.11501e+08 -912.42 -9859.68 9.84515e+07 1.54948e+07 6.51911e+06)
(1.11512e+08 -262.049 -12535.1 9.84697e+07 1.54951e+07 6.53456e+06)
(1.11525e+08 1265.97 -7591.99 9.84958e+07 1.55107e+07 6.55552e+06)
(1.11473e+08 -2975.91 -16659.5 9.84246e+07 1.55051e+07 6.51269e+06)
(1.11309e+08 -44500.8 -108708 9.83785e+07 1.54708e+07 6.49472e+06)
(1.09635e+08 -211393 -860786 9.77638e+07 1.51891e+07 5.53003e+06)
(9.39431e+07 -397736 -4.42962e+06 9.09447e+07 1.38317e+07 -3.01138e+06)
(5.26298e+07 -915810 -2.60067e+07 8.56683e+07 1.36307e+07 1.85202e+07)
(5.41899e+07 720416 2.69124e+07 9.27776e+07 8.51217e+06 2.19756e+07)
(9.69699e+07 313844 4.63096e+06 9.87677e+07 8.46477e+06 -103496)
(1.13348e+08 165033 937255 1.06169e+08 9.39669e+06 8.89939e+06)
(1.15108e+08 37946 119895 1.06884e+08 9.67094e+06 9.91168e+06)
(1.15307e+08 4138.08 22519 1.06969e+08 9.69266e+06 9.95953e+06)
(1.15309e+08 -915.773 12470.8 1.06947e+08 9.7329e+06 9.93035e+06)
(1.15343e+08 -2041.63 9377.98 1.07002e+08 9.69684e+06 9.97472e+06)
(1.15319e+08 866.604 9584.49 1.0696e+08 9.69e+06 9.9446e+06)
(1.15319e+08 -709.114 4164.02 1.06962e+08 9.72647e+06 9.93831e+06)
(1.1533e+08 -1479.64 164.987 1.06973e+08 9.66318e+06 9.96258e+06)
(1.15339e+08 -551.208 2732.03 1.06992e+08 9.68475e+06 9.96976e+06)
(1.15331e+08 227.527 4252.41 1.06972e+08 9.6633e+06 9.96524e+06)
(1.15323e+08 2044.17 -559.407 1.06955e+08 9.66825e+06 9.95544e+06)
(1.15317e+08 252.678 727.467 1.0695e+08 9.69602e+06 9.94134e+06)
(1.15322e+08 -1244.59 287.536 1.06963e+08 9.68838e+06 9.94741e+06)
(1.15329e+08 868.007 -1082.96 1.0697e+08 9.66506e+06 9.96057e+06)
(1.15316e+08 409.659 59.3256 1.06949e+08 9.69603e+06 9.93955e+06)
(1.15323e+08 -1767.39 441.949 1.06963e+08 9.6884e+06 9.94807e+06)
(1.1533e+08 -638.632 -675.157 1.06971e+08 9.66208e+06 9.9643e+06)
(1.1532e+08 518.373 -2048.95 1.06958e+08 9.6881e+06 9.94847e+06)
(1.15319e+08 1460.94 -8388.89 1.06954e+08 9.68896e+06 9.94652e+06)
(1.15329e+08 676.8 -4658.9 1.06973e+08 9.69286e+06 9.95672e+06)
(1.1532e+08 -364.789 -1554.03 1.06961e+08 9.68866e+06 9.94554e+06)
(1.15327e+08 475.305 -12724.6 1.06973e+08 9.70162e+06 9.9548e+06)
(1.15333e+08 196.87 -11411.1 1.06982e+08 9.70237e+06 9.96719e+06)
(1.15292e+08 -4435.65 -17490.8 1.06939e+08 9.69452e+06 9.94455e+06)
(1.15119e+08 -37334.1 -124307 1.06897e+08 9.6423e+06 9.93236e+06)
(1.13345e+08 -163487 -938046 1.06161e+08 9.40203e+06 8.89841e+06)
(9.69722e+07 -313167 -4.63127e+06 9.87691e+07 8.46468e+06 -100448)
(5.41916e+07 -719941 -2.691e+07 9.27838e+07 8.54661e+06 2.19727e+07)
(5.50546e+07 497061 2.7574e+07 9.71441e+07 5.29608e+06 2.38339e+07)
(9.86479e+07 230973 4.80159e+06 1.03552e+08 5.16702e+06 1.28297e+06)
(1.15511e+08 122847 997578 1.11381e+08 5.84751e+06 1.05904e+07)
(1.17336e+08 29938.1 140513 1.12157e+08 6.03224e+06 1.16424e+07)
(1.17533e+08 3489.99 23442.5 1.12224e+08 6.08049e+06 1.16718e+07)
(1.17551e+08 -243.347 8078.05 1.12216e+08 6.0582e+06 1.16687e+07)
(1.17571e+08 -1334.32 8977.69 1.12253e+08 6.07928e+06 1.16869e+07)
(1.17563e+08 -679.289 9600.23 1.12236e+08 6.04913e+06 1.1679e+07)
(1.17558e+08 -137.953 370.725 1.12226e+08 6.05309e+06 1.16731e+07)
(1.17577e+08 -91.3082 3765.11 1.1226e+08 6.04751e+06 1.16971e+07)
(1.17567e+08 -464.967 2443.96 1.12246e+08 6.07594e+06 1.16809e+07)
(1.17578e+08 -826.837 -2871.52 1.12258e+08 6.04709e+06 1.1701e+07)
(1.17582e+08 1065.94 3822.3 1.12262e+08 6.03011e+06 1.17093e+07)
(1.17563e+08 286.135 4292.61 1.12232e+08 6.05315e+06 1.16796e+07)
(1.17565e+08 -419.64 -3664.1 1.12238e+08 6.04872e+06 1.16809e+07)
(1.17577e+08 605.954 -718.836 1.12258e+08 6.04886e+06 1.16964e+07)
(1.17562e+08 -153.862 3698.55 1.12231e+08 6.05311e+06 1.16779e+07)
(1.17565e+08 -1066.02 -3765.66 1.12239e+08 6.04881e+06 1.16817e+07)
(1.17576e+08 -916.668 -781.787 1.12255e+08 6.04601e+06 1.16991e+07)
(1.17574e+08 -434.925 1771.89 1.12248e+08 6.02637e+06 1.16983e+07)
(1.1757e+08 2286.55 -4173.11 1.12242e+08 6.02673e+06 1.16951e+07)
(1.17561e+08 1121.78 -4435.78 1.12233e+08 6.08176e+06 1.16734e+07)
(1.17563e+08 -660.746 -9346.58 1.12237e+08 6.04877e+06 1.16787e+07)
(1.17571e+08 997.332 -12612 1.12248e+08 6.05224e+06 1.16911e+07)
(1.17573e+08 -746.895 -7219.93 1.12253e+08 6.06192e+06 1.1698e+07)
(1.17542e+08 -4261.53 -22591.4 1.12232e+08 6.02996e+06 1.1694e+07)
(1.17349e+08 -28177.5 -141016 1.12176e+08 6.0283e+06 1.16641e+07)
(1.15511e+08 -122013 -994243 1.11378e+08 5.85044e+06 1.05941e+07)
(9.86491e+07 -230684 -4.80215e+06 1.03553e+08 5.16668e+06 1.28484e+06)
(5.50528e+07 -497134 -2.7573e+07 9.71359e+07 5.2999e+06 2.38285e+07)
(5.55637e+07 315748 2.80116e+07 9.98565e+07 3.31304e+06 2.48773e+07)
(9.96224e+07 160270 4.93713e+06 1.06496e+08 3.18209e+06 1.99332e+06)
(1.16799e+08 88951.6 1.04294e+06 1.14614e+08 3.67889e+06 1.14879e+07)
(1.18686e+08 21665.7 146691 1.15462e+08 3.78958e+06 1.25863e+07)
(1.18889e+08 2884.83 24636.5 1.15523e+08 3.80798e+06 1.26172e+07)
(1.18916e+08 647.636 11451.5 1.15533e+08 3.80989e+06 1.26195e+07)
(1.18919e+08 -892.597 8412.55 1.15536e+08 3.83328e+06 1.26162e+07)
(1.18924e+08 -1125.99 6014.21 1.15545e+08 3.80396e+06 1.26242e+07)
(1.18922e+08 631.926 3895.67 1.1554e+08 3.80692e+06 1.26219e+07)
(1.18927e+08 -125.571 3405.47 1.1555e+08 3.8284e+06 1.26241e+07)
(1.18924e+08 -743.818 2331.35 1.15542e+08 3.80588e+06 1.26249e+07)
(1.18935e+08 691.885 -2652.88 1.1556e+08 3.80816e+06 1.26401e+07)
(1.18939e+08 398.176 587.033 1.15567e+08 3.83032e+06 1.26421e+07)
(1.18926e+08 -1022.61 4216.55 1.15544e+08 3.80652e+06 1.2627e+07)
(1.18926e+08 480.228 -203.515 1.15546e+08 3.80395e+06 1.26261e+07)
(1.18927e+08 450.02 -473.4 1.1555e+08 3.82943e+06 1.26243e+07)
(1.18925e+08 -893.29 42.4195 1.15543e+08 3.80645e+06 1.2625e+07)
(1.18927e+08 -621.56 -486.531 1.15547e+08 3.8041e+06 1.26276e+07)
(1.18933e+08 -232.761 -4531.7 1.15555e+08 3.80727e+06 1.26382e+07)
(1.1894e+08 -460.476 -5376.38 1.15568e+08 3.80257e+06 1.2647e+07)
(1.18944e+08 1062.14 -157.732 1.15574e+08 3.78312e+06 1.26557e+07)
(1.18921e+08 847.548 -665.914 1.15536e+08 3.80891e+06 1.26216e+07)
(1.18924e+08 443.24 -5733.26 1.15545e+08 3.80407e+06 1.26238e+07)
(1.18923e+08 1743.31 -12340.8 1.15543e+08 3.83157e+06 1.26214e+07)
(1.18927e+08 -847.861 -14409.1 1.15551e+08 3.83521e+06 1.26324e+07)
(1.18907e+08 -4340.56 -20295.6 1.15553e+08 3.80479e+06 1.26431e+07)
(1.18694e+08 -21062.2 -143409 1.15472e+08 3.79181e+06 1.26019e+07)
(1.168e+08 -88505.4 -1.04302e+06 1.14614e+08 3.6802e+06 1.14927e+07)
(9.9623e+07 -160112 -4.93773e+06 1.06496e+08 3.18159e+06 1.99456e+06)
(5.55626e+07 -315981 -2.80112e+07 9.98521e+07 3.31632e+06 2.48741e+07)
(5.58823e+07 190513 2.82828e+07 1.01558e+08 2.08116e+06 2.55048e+07)
(1.00217e+08 105343 5.02843e+06 1.08313e+08 1.97682e+06 2.40558e+06)
(1.17601e+08 63037.3 1.07656e+06 1.16648e+08 2.29852e+06 1.20329e+07)
(1.19527e+08 16096 154438 1.17547e+08 2.39418e+06 1.31538e+07)
(1.19739e+08 2306.53 25667.8 1.17614e+08 2.4084e+06 1.31891e+07)
(1.19769e+08 436.247 11359 1.17626e+08 2.40922e+06 1.31912e+07)
(1.19769e+08 -575.047 7994.45 1.1762e+08 2.41111e+06 1.31878e+07)
(1.19775e+08 -623.211 5820.36 1.17633e+08 2.40607e+06 1.31928e+07)
(1.19774e+08 315.755 3857.5 1.17631e+08 2.40762e+06 1.31926e+07)
(1.19773e+08 -95.4108 3286.65 1.17628e+08 2.40828e+06 1.31915e+07)
(1.19776e+08 -99.2925 -1312.32 1.17633e+08 2.40804e+06 1.31959e+07)
(1.19786e+08 1095.27 872.35 1.17647e+08 2.40774e+06 1.32103e+07)
(1.19776e+08 -33.5368 4355.35 1.17631e+08 2.43148e+06 1.31951e+07)
(1.19776e+08 -1453.26 622.37 1.17633e+08 2.40786e+06 1.31963e+07)
(1.19775e+08 231.008 -239.207 1.17631e+08 2.40626e+06 1.3195e+07)
(1.19774e+08 454.093 -302.091 1.17628e+08 2.40914e+06 1.31925e+07)
(1.19776e+08 -569.171 -59.374 1.17633e+08 2.40779e+06 1.31944e+07)
(1.19777e+08 -575.609 -4196.68 1.17634e+08 2.4061e+06 1.31969e+07)
(1.19791e+08 454.748 -1131.42 1.17655e+08 2.38848e+06 1.32198e+07)
(1.19779e+08 914.422 -1886.17 1.17637e+08 2.4274e+06 1.32005e+07)
(1.19789e+08 119.835 -3207.35 1.17655e+08 2.42737e+06 1.32124e+07)
(1.19774e+08 -469.565 -468.126 1.17629e+08 2.4094e+06 1.31944e+07)
(1.19774e+08 258.215 -5801.11 1.17633e+08 2.40637e+06 1.3193e+07)
(1.19771e+08 1711.84 -8442.94 1.17624e+08 2.40968e+06 1.31906e+07)
(1.19766e+08 211.351 -10929 1.17621e+08 2.43432e+06 1.31892e+07)
(1.19745e+08 -4057.94 -28622.8 1.17626e+08 2.42855e+06 1.31966e+07)
(1.19542e+08 -16581.7 -154463 1.17566e+08 2.37497e+06 1.31809e+07)
(1.17603e+08 -62503 -1.07296e+06 1.16649e+08 2.29889e+06 1.20386e+07)
(1.00216e+08 -105110 -5.02904e+06 1.08313e+08 1.97617e+06 2.40616e+06)
(5.5882e+07 -190789 -2.82829e+07 1.01557e+08 2.0836e+06 2.55036e+07)
(5.60872e+07 111678 2.84444e+07 1.02627e+08 1.30728e+06 2.5896e+07)
(1.00588e+08 66984.9 5.08802e+06 1.09435e+08 1.23326e+06 2.66296e+06)
(1.18108e+08 43669.6 1.10068e+06 1.17934e+08 1.44664e+06 1.23791e+07)
(1.20058e+08 11592.9 160154 1.18863e+08 1.51422e+06 1.35131e+07)
(1.20275e+08 1777.71 26488.1 1.18933e+08 1.52442e+06 1.35508e+07)
(1.20307e+08 446.19 11429.4 1.18946e+08 1.52527e+06 1.35525e+07)
(1.20309e+08 -346.385 7712.05 1.18945e+08 1.52654e+06 1.35515e+07)
(1.20312e+08 -355.576 5563.87 1.18951e+08 1.52369e+06 1.3553e+07)
(1.20312e+08 162.62 3931.85 1.1895e+08 1.52448e+06 1.35533e+07)
(1.20312e+08 -54.6756 3228.18 1.18949e+08 1.52553e+06 1.35537e+07)
(1.20314e+08 537.973 2048.97 1.18952e+08 1.52495e+06 1.35572e+07)
(1.20315e+08 585.298 1023.88 1.18953e+08 1.5454e+06 1.35583e+07)
(1.20311e+08 -587.777 958.265 1.18944e+08 1.5279e+06 1.35548e+07)
(1.20314e+08 -1281.16 442.07 1.18952e+08 1.52506e+06 1.35569e+07)
(1.20319e+08 120.852 -139.69 1.18959e+08 1.50585e+06 1.35652e+07)
(1.20313e+08 761.611 -214.155 1.1895e+08 1.52626e+06 1.35551e+07)
(1.20313e+08 -489.62 -294.455 1.18951e+08 1.52506e+06 1.35551e+07)
(1.20313e+08 616.178 -4265.78 1.1895e+08 1.5237e+06 1.35568e+07)
(1.20325e+08 -100.468 -1088.65 1.18971e+08 1.54531e+06 1.3573e+07)
(1.20319e+08 1.2109 1540.27 1.18956e+08 1.50675e+06 1.35678e+07)
(1.20312e+08 590.313 -2972.61 1.18948e+08 1.54535e+06 1.35569e+07)
(1.20312e+08 -691.123 -3814.99 1.18949e+08 1.52535e+06 1.35562e+07)
(1.20312e+08 162.532 -5727.43 1.18951e+08 1.52401e+06 1.35538e+07)
(1.2031e+08 929.521 -8056.43 1.18946e+08 1.52589e+06 1.35527e+07)
(1.20303e+08 37.3218 -11006.4 1.18937e+08 1.52877e+06 1.35505e+07)
(1.20277e+08 -2019.42 -29749.7 1.18935e+08 1.52525e+06 1.35545e+07)
(1.20068e+08 -12042.2 -160105 1.18876e+08 1.53367e+06 1.35315e+07)
(1.1811e+08 -44097.1 -1.09698e+06 1.17935e+08 1.44632e+06 1.23846e+07)
(1.00587e+08 -66454.7 -5.08857e+06 1.09435e+08 1.23255e+06 2.66297e+06)
(5.60874e+07 -111975 -2.84452e+07 1.0263e+08 1.30926e+06 2.58956e+07)
(5.62235e+07 64702.6 2.85385e+07 1.03309e+08 797024 2.61501e+07)
(1.00821e+08 41964.3 5.12522e+06 1.10127e+08 767782 2.82623e+06)
(1.18427e+08 29510 1.11757e+06 1.18739e+08 906144 1.25983e+07)
(1.20392e+08 7790.54 164412 1.19689e+08 953128 1.3742e+07)
(1.2062e+08 1310.98 27116.7 1.19772e+08 942499 1.37898e+07)
(1.20646e+08 768.013 11445.2 1.19776e+08 961023 1.37825e+07)
(1.20649e+08 -174.765 7522.14 1.19777e+08 961548 1.37821e+07)
(1.2065e+08 -202.84 5405.2 1.1978e+08 960357 1.37823e+07)
(1.20651e+08 90.2924 3967.22 1.1978e+08 960840 1.37827e+07)
(1.20651e+08 -61.6709 3177.37 1.1978e+08 961422 1.37841e+07)
(1.20652e+08 73.7528 2006.44 1.19781e+08 961015 1.37867e+07)
(1.20649e+08 344.202 1206.31 1.19772e+08 962343 1.37851e+07)
(1.20651e+08 -82.4904 976.598 1.19777e+08 963134 1.37862e+07)
(1.20653e+08 -441.659 -3232.12 1.19782e+08 961476 1.37867e+07)
(1.20662e+08 69.5464 -70.1407 1.19796e+08 960496 1.37995e+07)
(1.20652e+08 181.508 3343.45 1.19781e+08 962093 1.3786e+07)
(1.20652e+08 -746.266 -442.244 1.19781e+08 961520 1.3785e+07)
(1.20657e+08 918.505 -812.265 1.19788e+08 942763 1.37944e+07)
(1.20653e+08 620.847 -4498.2 1.19781e+08 981839 1.37892e+07)
(1.20662e+08 -1109.54 -1825.32 1.19795e+08 960941 1.38023e+07)
(1.20655e+08 22.9912 575.013 1.19781e+08 945090 1.3794e+07)
(1.20651e+08 149.906 -3888.18 1.19778e+08 960857 1.37857e+07)
(1.20651e+08 170.473 -5640.23 1.1978e+08 960650 1.37834e+07)
(1.2065e+08 490.404 -7751.83 1.19778e+08 961317 1.3783e+07)
(1.20644e+08 -107.471 -10993.6 1.19772e+08 963022 1.37825e+07)
(1.20616e+08 -1532.07 -27146.4 1.19765e+08 960832 1.37852e+07)
(1.20396e+08 -8689.77 -164471 1.19691e+08 954864 1.37544e+07)
(1.18428e+08 -29735.3 -1.1173e+06 1.18737e+08 905494 1.26029e+07)
(1.0082e+08 -40739.4 -5.12558e+06 1.10126e+08 767095 2.82567e+06)
(5.62195e+07 -64883.6 -2.85403e+07 1.03303e+08 818487 2.61405e+07)
(5.63111e+07 37172.5 2.85902e+07 1.03737e+08 503020 2.63085e+07)
(1.00966e+08 24852.9 5.1529e+06 1.10549e+08 471873 2.92682e+06)
(1.18624e+08 19289.5 1.12902e+06 1.19236e+08 559467 1.27346e+07)
(1.206e+08 5646.71 164004 1.20204e+08 591004 1.38856e+07)
(1.20835e+08 838.652 27550.1 1.20297e+08 595559 1.39392e+07)
(1.20856e+08 221.506 14918.4 1.20292e+08 596183 1.39262e+07)
(1.2086e+08 -30.8193 7419.15 1.20294e+08 596664 1.39258e+07)
(1.20862e+08 -108.424 5316.98 1.20296e+08 596212 1.39259e+07)
(1.20862e+08 49.9498 3970.75 1.20296e+08 596555 1.39264e+07)
(1.20862e+08 -119.712 3117.26 1.20296e+08 596831 1.39279e+07)
(1.20863e+08 -450.376 2050.95 1.20296e+08 596287 1.39302e+07)
(1.20867e+08 267.928 1329.77 1.20301e+08 580023 1.39379e+07)
(1.20864e+08 465.476 933.849 1.20296e+08 597723 1.39308e+07)
(1.20864e+08 202.008 51.73 1.20298e+08 597137 1.39303e+07)
(1.20865e+08 31.9321 -29.5176 1.20298e+08 614954 1.39325e+07)
(1.20864e+08 -310.792 12.8469 1.20297e+08 597433 1.39301e+07)
(1.20864e+08 -98.2818 -3994.15 1.20297e+08 597200 1.39293e+07)
(1.20873e+08 421.711 -696.976 1.20313e+08 596558 1.39432e+07)
(1.20862e+08 437.447 2352.52 1.20292e+08 598859 1.39306e+07)
(1.20865e+08 -254.444 -5285.41 1.20298e+08 614753 1.39349e+07)
(1.20873e+08 -602.595 -2781.87 1.20311e+08 597866 1.39449e+07)
(1.20862e+08 -205.303 -522.795 1.20293e+08 596181 1.39293e+07)
(1.20862e+08 274.725 -5541.99 1.20296e+08 596515 1.39274e+07)
(1.20861e+08 246.687 -7599.69 1.20295e+08 596487 1.39268e+07)
(1.20856e+08 -282.235 -11050.3 1.20292e+08 597244 1.39269e+07)
(1.20826e+08 -1310.37 -31084.7 1.2028e+08 595640 1.39287e+07)
(1.20612e+08 -6248.46 -167613 1.20219e+08 574619 1.39086e+07)
(1.18631e+08 -19309.3 -1.12543e+06 1.19244e+08 541258 1.27475e+07)
(1.00964e+08 -24008.5 -5.14787e+06 1.10548e+08 471223 2.92711e+06)
(5.63031e+07 -37273.2 -2.85956e+07 1.0372e+08 504106 2.62915e+07)
(5.63569e+07 20865.5 2.8625e+07 1.03974e+08 317944 2.63876e+07)
(1.01053e+08 13797.6 5.16084e+06 1.10802e+08 278978 2.98914e+06)
(1.18744e+08 11911.7 1.1364e+06 1.19537e+08 331929 1.28173e+07)
(1.20725e+08 3980.2 169458 1.20516e+08 351844 1.39723e+07)
(1.20955e+08 357.225 27790.3 1.20596e+08 372406 1.40165e+07)
(1.20984e+08 -202.997 11546.9 1.20604e+08 354907 1.40132e+07)
(1.20989e+08 171.155 7391.45 1.20608e+08 355440 1.4013e+07)
(1.2099e+08 -49.504 5259.54 1.20609e+08 355256 1.4013e+07)
(1.2099e+08 26.2686 3965.66 1.20609e+08 355516 1.40135e+07)
(1.20991e+08 -256.854 3020.83 1.2061e+08 355718 1.40149e+07)
(1.20991e+08 50.3368 -1377.75 1.20607e+08 355071 1.40168e+07)
(1.21002e+08 332.586 1437.21 1.20625e+08 356095 1.40316e+07)
(1.20992e+08 -33.8232 4365.26 1.2061e+08 356109 1.4018e+07)
(1.20992e+08 -420.706 55.5799 1.20611e+08 355994 1.40175e+07)
(1.20994e+08 -11.7327 -1.59143 1.20611e+08 338937 1.40232e+07)
(1.20992e+08 389.404 16.3211 1.2061e+08 356004 1.40176e+07)
(1.20992e+08 583.911 -617.257 1.20611e+08 356068 1.40165e+07)
(1.20995e+08 169.79 -599.395 1.20615e+08 373868 1.40207e+07)
(1.20992e+08 -892.862 -1062.08 1.20609e+08 356768 1.40189e+07)
(1.20995e+08 481.429 -1910.48 1.20612e+08 338557 1.40248e+07)
(1.20995e+08 -292.3 -2782.97 1.20615e+08 374208 1.40233e+07)
(1.20995e+08 -701.774 -3971.67 1.20615e+08 337581 1.40237e+07)
(1.20991e+08 596 -5486.7 1.2061e+08 355542 1.40151e+07)
(1.20989e+08 110.097 -7539.19 1.20608e+08 355090 1.40138e+07)
(1.20985e+08 -620.791 -11102.1 1.20607e+08 355568 1.40141e+07)
(1.20958e+08 36.4187 -31375.3 1.20603e+08 336963 1.40229e+07)
(1.20738e+08 -3068.28 -173401 1.20533e+08 370521 1.3993e+07)
(1.18756e+08 -12843.3 -1.13297e+06 1.19555e+08 331421 1.28357e+07)
(1.01052e+08 -14226.8 -5.1572e+06 1.10801e+08 278181 2.9889e+06)
(5.63541e+07 -20796.6 -2.86273e+07 1.03972e+08 298283 2.63819e+07)
(5.63864e+07 10775.3 2.86424e+07 1.04117e+08 137642 2.64401e+07)
(1.01103e+08 7850.03 5.16803e+06 1.10944e+08 146467 3.02346e+06)
(1.18811e+08 6428.84 1.14078e+06 1.19707e+08 174707 1.28637e+07)
(1.20797e+08 1476.07 170712 1.20692e+08 185632 1.40217e+07)
(1.21027e+08 -207.997 27935.5 1.20772e+08 169987 1.40678e+07)
(1.21062e+08 630.991 11578.9 1.2079e+08 169802 1.40695e+07)
(1.21062e+08 570.782 7380.81 1.20786e+08 187551 1.40624e+07)
(1.21062e+08 -13.1169 5225.38 1.20787e+08 187524 1.40621e+07)
(1.21063e+08 11.9905 3968.34 1.20787e+08 187721 1.40627e+07)
(1.21064e+08 -594.757 2956.81 1.20788e+08 187895 1.40644e+07)
(1.21068e+08 590.684 2053 1.20794e+08 170091 1.40725e+07)
(1.21068e+08 621.577 1497.36 1.20792e+08 205857 1.40722e+07)
(1.21064e+08 -568.862 930.688 1.20788e+08 188062 1.40668e+07)
(1.21065e+08 -4.52461 -3340.26 1.20789e+08 188129 1.40669e+07)
(1.21073e+08 -86.3621 -11.4308 1.20801e+08 188221 1.40796e+07)
(1.21064e+08 6.56312 3426.25 1.20787e+08 187684 1.40668e+07)
(1.21064e+08 322.601 -562.109 1.20788e+08 188178 1.40656e+07)
(1.21063e+08 60.4393 -588.063 1.20784e+08 188703 1.40651e+07)
(1.21065e+08 -139.485 -4523.69 1.20788e+08 188060 1.40681e+07)
(1.21074e+08 224.052 -1866.53 1.20802e+08 188139 1.40805e+07)
(1.21064e+08 -200.12 -2841.67 1.20785e+08 188677 1.40677e+07)
(1.21073e+08 -308.096 -4006.16 1.20802e+08 187146 1.40788e+07)
(1.21063e+08 -6.21877 -2015.05 1.20788e+08 187768 1.40648e+07)
(1.21061e+08 35.9 -7517.78 1.20785e+08 186938 1.40625e+07)
(1.21058e+08 -18.5677 -14572.7 1.20785e+08 187601 1.40633e+07)
(1.21036e+08 516.502 -28037.3 1.2079e+08 186606 1.40782e+07)
(1.20799e+08 -1258.93 -167502 1.20692e+08 204161 1.40298e+07)
(1.18816e+08 -7551.11 -1.14102e+06 1.19713e+08 192292 1.28724e+07)
(1.011e+08 -7992.92 -5.16803e+06 1.10941e+08 145263 3.02187e+06)
(5.63835e+07 -10261.2 -2.86444e+07 1.04115e+08 156595 2.64326e+07)
(5.64043e+07 3367.58 2.8647e+07 1.04195e+08 49417.7 2.64726e+07)
(1.01124e+08 2171.19 5.17639e+06 1.11007e+08 45524.5 3.03767e+06)
(1.18841e+08 1971.46 1.1428e+06 1.19783e+08 54499 1.28844e+07)
(1.20829e+08 135.656 167893 1.20772e+08 57740.7 1.40443e+07)
(1.21072e+08 170.255 24570.5 1.20874e+08 41116.8 1.41046e+07)
(1.211e+08 527.319 14993.9 1.20881e+08 58352.2 1.40988e+07)
(1.21094e+08 0.645944 10817.9 1.20867e+08 58373.5 1.40844e+07)
(1.21095e+08 -5.29653 5215.8 1.20867e+08 58402.8 1.40841e+07)
(1.21095e+08 13.9274 3967.86 1.20867e+08 58542.2 1.40847e+07)
(1.21096e+08 -5.7282 -515.259 1.20868e+08 58655.4 1.40867e+07)
(1.21107e+08 158.948 2072.03 1.20884e+08 58616.1 1.41014e+07)
(1.21096e+08 -28.2862 4953.11 1.20864e+08 58946.4 1.40887e+07)
(1.21097e+08 -156.947 913.133 1.20868e+08 58569.4 1.40887e+07)
(1.21098e+08 430.487 82.7561 1.20869e+08 58795.5 1.4089e+07)
(1.21099e+08 -241.122 -69.9416 1.20869e+08 76202.4 1.40934e+07)
(1.21096e+08 -387.156 33.5549 1.20865e+08 58163.2 1.40882e+07)
(1.21097e+08 296.992 -437.323 1.20869e+08 58877.5 1.40879e+07)
(1.21096e+08 19.9844 -618.223 1.20866e+08 59036 1.40881e+07)
(1.21098e+08 569.733 -1145.31 1.20869e+08 58445.3 1.40895e+07)
(1.211e+08 104.973 -1769.16 1.20873e+08 76376.6 1.40944e+07)
(1.21097e+08 -284.287 -2900.94 1.20868e+08 59096.6 1.40901e+07)
(1.21098e+08 -121.796 -4055.2 1.20869e+08 75692.6 1.40921e+07)
(1.21096e+08 -612.548 -5456.19 1.20868e+08 58562.5 1.4087e+07)
(1.21093e+08 -9.82898 -7518.3 1.20863e+08 57609 1.40841e+07)
(1.21091e+08 578.144 -11145.7 1.20866e+08 58347.8 1.40856e+07)
(1.21061e+08 142.318 -28029.6 1.20857e+08 75223.4 1.40911e+07)
(1.20827e+08 -703.432 -171391 1.20765e+08 58141.3 1.40463e+07)
(1.18842e+08 -2894.8 -1.14348e+06 1.19781e+08 54899.6 1.28876e+07)