/*--------------------------------*- C++ -*----------------------------------*\
| =========                 |                                                 |
| \\      /  F ield         | OpenFOAM: The Open Source CFD Toolbox           |
|  \\    /   O peration     | Version:  2106                                  |
|   \\  /    A nd           | Website:  www.openfoam.com                      |
|    \\/     M anipulation  |                                                 |
\*---------------------------------------------------------------------------*/
FoamFile
{
    version     2.0;
    format      ascii;
    arch        "LSB;label=32;scalar=64";
    class       volTensorField;
    location    "245";
    object      testEpsilon;
}
// * * * * * * * * * * * * * * * * * * * * * * * * * * * * * * * * * * * * * //

dimensions      [0 0 0 0 0 0 0];

internalField   nonuniform List<tensor> 
9000
(
(-0.085632 0.00384259 -0.105601 -0.00437627 -0.147199 -0.257742 0.202055 0.380668 -0.0251349)
(-0.0167908 0.00368677 -0.00285998 -0.00261232 -0.156534 -0.270572 0.0216873 0.400923 -0.0696039)
(-0.00193345 0.00248656 0.00204587 -0.00181444 -0.166466 -0.287312 0.00311052 0.425739 -0.0593273)
(-0.000322628 0.000468709 0.000325917 -0.000366831 -0.168081 -0.291081 0.000577088 0.431287 -0.0572032)
(-5.55602e-05 -3.45596e-05 -2.5052e-05 1.94524e-05 -0.168166 -0.291202 0.000101527 0.431465 -0.0572083)
(-4.56718e-06 -1.70196e-05 -9.29372e-06 1.33738e-05 -0.167998 -0.29046 4.43066e-05 0.430317 -0.0574532)
(-2.06024e-06 -1.59177e-06 -5.36963e-07 1.67822e-06 -0.168145 -0.291064 3.6182e-05 0.431263 -0.0572812)
(2.39092e-07 -3.32744e-05 -2.13984e-05 2.1748e-05 -0.167989 -0.290442 1.93549e-05 0.430299 -0.0574559)
(-5.5618e-07 3.94437e-05 2.50402e-05 -2.66598e-05 -0.167992 -0.290446 2.62549e-05 0.430303 -0.0574523)
(-5.61949e-06 1.76813e-05 9.10875e-06 -4.63516e-06 -0.168159 -0.291116 -3.33414e-05 0.431339 -0.0572498)
(2.56319e-06 -5.75326e-05 -3.85478e-05 4.56499e-05 -0.16805 -0.290697 -5.27199e-05 0.430694 -0.0573539)
(6.52466e-06 1.80169e-05 1.38454e-05 -1.9025e-05 -0.167892 -0.290056 5.90019e-05 0.4297 -0.0575376)
(-4.30428e-06 5.25822e-05 3.49714e-05 -4.24023e-05 -0.168157 -0.29109 6.2189e-05 0.4313 -0.0572592)
(-3.07842e-06 -1.31721e-05 -1.1263e-05 1.46779e-05 -0.168164 -0.291064 -5.10441e-05 0.431279 -0.057269)
(3.47381e-06 7.4981e-06 5.09701e-06 -5.5748e-06 -0.168062 -0.290738 2.67856e-06 0.430751 -0.0573395)
(-2.65909e-06 1.16421e-05 9.39942e-06 -1.40628e-05 -0.168166 -0.291138 4.9676e-05 0.43137 -0.0572397)
(-1.64138e-06 -1.87174e-05 -1.44265e-05 1.92858e-05 -0.168163 -0.291062 -5.51875e-05 0.431276 -0.0572719)
(3.51827e-07 3.14438e-06 2.85573e-06 -1.49102e-06 -0.168063 -0.290743 -7.73685e-07 0.430758 -0.0573369)
(-1.95257e-06 -4.31324e-05 -2.68872e-05 3.00114e-05 -0.168156 -0.2911 -1.36836e-05 0.431318 -0.0572533)
(4.53377e-06 -3.87067e-05 -2.45426e-05 2.60955e-05 -0.167885 -0.290039 -1.63096e-05 0.429677 -0.0575496)
(2.26786e-06 5.80915e-05 3.88921e-05 -4.64682e-05 -0.167989 -0.290433 4.67952e-05 0.430288 -0.0574532)
(-5.51621e-06 4.0943e-05 2.53638e-05 -2.83366e-05 -0.16816 -0.291109 -1.02976e-05 0.431324 -0.0572589)
(-2.90523e-06 -3.58182e-05 -2.27588e-05 2.39725e-05 -0.168158 -0.291117 -3.17988e-05 0.431339 -0.0572568)
(2.01748e-07 -6.56326e-06 -3.81825e-06 5.04878e-06 -0.167998 -0.290465 -3.63111e-05 0.430327 -0.0574474)
(-7.94268e-06 1.16398e-05 6.48872e-06 -8.43422e-06 -0.168146 -0.291064 -4.3518e-05 0.43126 -0.0572823)
(-5.47432e-05 -2.30315e-05 -1.37114e-05 2.64685e-05 -0.168007 -0.290558 -0.000162335 0.430468 -0.0573889)
(-0.000316622 -0.00044212 -0.000309067 0.000350082 -0.167962 -0.290624 -0.000573879 0.43059 -0.0573216)
(-0.0019337 -0.00246086 -0.00202784 0.00178903 -0.16646 -0.287219 -0.00305535 0.425621 -0.05936)
(-0.0167935 -0.00367768 0.00286594 0.00260514 -0.156534 -0.27057 -0.0216852 0.400921 -0.0696017)
(-0.0856324 -0.00384353 0.105603 0.00437715 -0.1472 -0.257737 -0.202059 0.38066 -0.0251351)
(-0.0724302 0.00189832 -0.103312 -0.00192907 -0.0981328 -0.0791547 0.196396 0.215657 -0.128875)
(-0.0164141 0.00216288 -0.00426651 -0.000800104 -0.103241 -0.0826748 0.0203727 0.226293 -0.174957)
(-0.00180622 0.00153565 0.00097972 -0.000669752 -0.109293 -0.0877197 0.00212031 0.240343 -0.17127)
(-0.000207915 0.000316804 0.000120331 -0.000174237 -0.110461 -0.0889112 0.000338153 0.243837 -0.170571)
(-2.8067e-05 -1.4577e-05 2.19599e-06 2.58595e-06 -0.110486 -0.0889512 5.4511e-05 0.243949 -0.170613)
(-4.82187e-06 -1.36307e-05 -1.94894e-06 6.48699e-06 -0.110276 -0.0887783 5.25987e-05 0.24366 -0.170614)
(-2.01238e-06 1.10357e-07 1.17647e-06 1.2705e-06 -0.110454 -0.0889082 3.70024e-05 0.243799 -0.170635)
(-1.32542e-06 -1.06253e-05 6.24954e-06 8.19791e-06 -0.110252 -0.0887745 -2.15655e-05 0.24366 -0.170613)
(-7.37054e-07 1.49646e-05 -5.68123e-06 -1.08977e-05 -0.110256 -0.088778 6.31331e-05 0.243661 -0.170612)
(-8.5546e-07 1.07219e-05 -2.07029e-06 3.30713e-06 -0.110465 -0.0889226 5.87531e-05 0.243849 -0.170628)
(-2.81329e-07 -1.71383e-05 9.60604e-06 2.32409e-05 -0.110374 -0.088838 -3.69015e-05 0.244115 -0.170591)
(-7.40104e-08 8.86382e-07 -4.06912e-06 -1.26388e-05 -0.110172 -0.0886999 6.05755e-06 0.243952 -0.170569)
(-6.82688e-07 1.03444e-05 -8.82745e-06 -2.39397e-05 -0.11047 -0.0889073 4.75114e-05 0.243811 -0.170625)
(-2.21523e-07 2.44747e-06 4.15269e-06 9.83301e-06 -0.11044 -0.0888917 -1.48187e-06 0.243507 -0.170612)
(2.0718e-07 8.45526e-06 -5.46593e-07 -9.11048e-07 -0.110385 -0.0888523 -4.01571e-07 0.244152 -0.170592)
(-3.08482e-07 -5.7203e-06 -2.83055e-06 -1.17137e-05 -0.110471 -0.0889309 -6.06363e-07 0.243869 -0.170626)
(2.31783e-08 -2.35408e-06 3.31993e-06 1.24258e-05 -0.110439 -0.0888913 -2.08074e-06 0.243507 -0.170614)
(5.52705e-08 5.50171e-06 -5.93372e-07 1.97085e-06 -0.110387 -0.0888533 -5.23492e-07 0.244156 -0.170592)
(-6.20509e-07 -1.73552e-05 5.87944e-06 1.29714e-05 -0.110459 -0.0889168 -4.82077e-05 0.243836 -0.170626)
(-6.39374e-07 -1.45221e-05 5.8446e-06 1.05911e-05 -0.110164 -0.0886933 -5.36582e-05 0.243941 -0.170573)
(-6.53231e-07 1.61462e-05 -1.04569e-05 -2.40268e-05 -0.110248 -0.0887703 3.05357e-05 0.243652 -0.170608)
(-8.19337e-07 1.6079e-05 -6.21137e-06 -1.21355e-05 -0.110478 -0.0889162 2.55926e-05 0.243828 -0.170631)
(-9.79584e-07 -1.19934e-05 6.42721e-06 9.7935e-06 -0.110464 -0.0889234 -7.04185e-05 0.243852 -0.170633)
(-1.53505e-06 -5.6016e-06 -1.13135e-06 2.31009e-06 -0.110266 -0.0887856 -3.24525e-05 0.243674 -0.170613)
(-5.30218e-06 9.98423e-06 1.96474e-06 -3.29226e-06 -0.110466 -0.0889021 -4.80287e-05 0.24379 -0.170633)
(-2.83907e-05 -2.53055e-06 7.23967e-06 2.12986e-05 -0.110283 -0.0888114 -9.88241e-05 0.243783 -0.170589)
(-0.000207845 -0.000313843 -0.00012573 0.000166395 -0.110356 -0.0888107 -0.000291658 0.244068 -0.170533)
(-0.00180631 -0.00152861 -0.00098322 0.000653779 -0.109256 -0.0876733 -0.00212374 0.239965 -0.171253)
(-0.0164142 -0.00215377 0.00426564 0.000798086 -0.103241 -0.082673 -0.0203748 0.22629 -0.174955)
(-0.0724296 -0.0018997 0.103313 0.00193033 -0.0981374 -0.0791559 -0.196399 0.215647 -0.128873)
(-0.0763305 -0.00107396 -0.104169 0.00341253 -0.0575905 -0.00939868 0.197781 0.125865 -0.153314)
(-0.0165389 0.00145469 -0.00457297 0.000285985 -0.0602447 -0.0111417 0.0203558 0.13256 -0.201938)
(-0.00180828 0.00104261 0.00079858 -2.63183e-06 -0.0634026 -0.0116437 0.00195461 0.141208 -0.199899)
(-0.00018816 0.000230183 7.96108e-05 -3.3209e-05 -0.0641386 -0.0118112 0.000258613 0.143742 -0.199586)
(-1.94155e-05 2.38796e-06 1.53285e-06 -3.49429e-06 -0.0641419 -0.011822 0.000100541 0.143846 -0.199642)
(-4.83027e-06 -1.06021e-05 -6.93626e-07 1.2998e-06 -0.0640422 -0.0118394 5.55446e-05 0.144098 -0.199594)
(-1.71805e-06 3.38956e-06 2.18844e-07 1.47815e-06 -0.06412 -0.0118125 3.69778e-05 0.143735 -0.19965)
(-2.19454e-06 6.233e-06 4.65698e-06 1.64002e-06 -0.0640354 -0.011852 2.97744e-05 0.144299 -0.199614)
(-1.53434e-06 -3.19024e-06 -4.56805e-06 -2.6618e-06 -0.0640456 -0.0118493 9.44089e-06 0.144293 -0.199613)
(1.20823e-06 -5.82498e-06 -2.89553e-06 6.00217e-07 -0.0641189 -0.0118159 1.0365e-05 0.143775 -0.199649)
(-6.26001e-07 1.00988e-06 5.98768e-06 4.95905e-06 -0.06411 -0.0118328 2.05683e-05 0.14374 -0.199634)
(-2.91146e-06 -1.18115e-06 -1.12533e-08 -3.94124e-06 -0.0640332 -0.0118688 1.53744e-06 0.144278 -0.199595)
(1.90091e-07 -1.06622e-06 -3.38404e-06 -5.50052e-06 -0.0641024 -0.0118063 -3.91014e-05 0.143562 -0.199623)
(1.52731e-06 3.74004e-06 -2.72269e-07 3.0511e-06 -0.0640501 -0.0118171 1.3994e-06 0.143772 -0.199631)
(-8.35536e-07 1.25847e-06 -2.74281e-06 -8.23745e-08 -0.0641139 -0.0118326 2.76423e-05 0.143766 -0.199639)
(8.28632e-09 8.99679e-07 1.59102e-06 -2.51868e-06 -0.0641217 -0.0118177 -3.31356e-05 0.143788 -0.19965)
(1.09554e-06 -1.84278e-06 1.08357e-06 2.57252e-06 -0.0640498 -0.0118178 2.28665e-06 0.143774 -0.199633)
(4.60945e-07 -8.50259e-07 -2.23626e-06 9.85831e-07 -0.0641152 -0.011832 2.92797e-05 0.143768 -0.199639)
(-2.28524e-07 1.56301e-06 5.10987e-06 3.04417e-06 -0.0641149 -0.0118158 6.26358e-06 0.143768 -0.199646)
(-2.86587e-06 3.4506e-06 4.76292e-06 2.46076e-06 -0.0640274 -0.0118679 -3.02755e-07 0.144277 -0.199597)
(-2.27746e-06 -4.74997e-06 -5.68377e-06 -6.3034e-06 -0.0640325 -0.0118519 -2.71024e-05 0.144295 -0.199609)
(1.24784e-06 -2.27926e-06 -5.25453e-06 -2.74631e-06 -0.0641106 -0.0118075 -2.80454e-05 0.14357 -0.199631)
(-1.61007e-08 6.51671e-06 3.36661e-06 3.69657e-06 -0.064117 -0.0118154 -1.69662e-05 0.143778 -0.199654)
(-2.4154e-06 -6.93605e-06 4.27717e-07 -9.41061e-07 -0.0640529 -0.0118495 -3.08192e-05 0.144295 -0.199614)
(-4.14499e-06 8.20644e-06 1.32434e-06 -4.14027e-07 -0.0641122 -0.0118036 -4.919e-05 0.143541 -0.199626)
(-2.08057e-05 -1.03005e-06 4.58608e-06 9.15681e-06 -0.0640652 -0.0118566 -8.67824e-05 0.144381 -0.199599)
(-0.000190126 -0.00023666 -8.14518e-05 3.10651e-05 -0.0641184 -0.0118254 -0.000293585 0.14369 -0.199565)
(-0.00180736 -0.00103779 -0.000800306 -1.66811e-07 -0.0633277 -0.011643 -0.00196267 0.141181 -0.199875)
(-0.0165382 -0.00145395 0.00456943 -0.000286499 -0.0602431 -0.0111411 -0.0203295 0.132559 -0.201934)
(-0.0763287 0.00107098 0.104169 -0.00340974 -0.0576005 -0.00939457 -0.197782 0.125847 -0.153312)
(-0.0819021 -0.00281865 -0.107778 0.00644403 -0.0351904 0.00543517 0.204629 0.0764929 -0.154219)
(-0.0170971 0.00100044 -0.00471551 0.000758058 -0.0372527 0.00345272 0.0210427 0.0811823 -0.205364)
(-0.00187006 0.000756865 0.000845827 0.000233213 -0.0391333 0.00392855 0.00214571 0.0873982 -0.203471)
(-0.000208087 0.000168948 8.4678e-05 3.23311e-05 -0.0396558 0.00401263 0.000293468 0.0890751 -0.203178)
(-2.11653e-05 4.70839e-06 -3.44046e-06 -5.14413e-06 -0.0396664 0.00401353 7.47803e-05 0.089173 -0.203239)
(-3.82738e-06 -9.23839e-06 -5.48683e-08 -2.42085e-06 -0.0396106 0.00398264 5.47122e-05 0.089011 -0.203222)
(-1.94434e-06 1.47307e-06 -1.34073e-06 1.06413e-06 -0.0396371 0.00401343 5.66121e-05 0.08896 -0.20323)
(-2.15341e-06 4.24982e-06 -1.11777e-06 -2.43681e-06 -0.0396515 0.00398102 2.67415e-05 0.0891481 -0.203253)
(-9.45015e-07 -1.73695e-06 1.5434e-06 2.52313e-06 -0.0396464 0.0039849 1.14498e-05 0.0890073 -0.203234)
(6.6871e-07 -2.1548e-06 1.241e-06 3.11741e-06 -0.0396431 0.00400821 1.25514e-05 0.0891282 -0.203248)
(-1.18962e-06 -9.71382e-09 -9.79222e-07 -3.2609e-06 -0.0396396 0.00400611 1.78709e-05 0.0891008 -0.203243)
(-2.16592e-06 2.39566e-06 1.22479e-06 -2.08612e-07 -0.039649 0.00397437 -1.889e-05 0.0891321 -0.203243)
(7.15779e-07 6.97561e-06 1.51672e-06 4.19301e-06 -0.0396014 0.00400111 -8.33864e-06 0.0891253 -0.203232)
(8.62106e-07 1.58898e-07 -1.11035e-06 6.33021e-07 -0.0396184 0.00398823 2.16838e-05 0.0894669 -0.203252)
(-9.06776e-07 -5.87699e-06 -6.72991e-07 -8.57127e-07 -0.0396359 0.00400519 -5.9787e-07 0.0891259 -0.203248)
(2.22496e-07 7.09558e-06 1.25676e-07 1.26323e-06 -0.0396449 0.00400827 -4.65619e-06 0.0891399 -0.20325)
(7.24081e-07 -1.05331e-06 4.61781e-07 -3.1517e-07 -0.0396193 0.00398802 2.1077e-06 0.0894681 -0.203254)
(1.49601e-07 -7.51117e-06 -1.84314e-07 -1.05541e-06 -0.0396365 0.00400532 1.15384e-06 0.0891266 -0.203247)
(-3.25523e-07 2.12898e-07 -1.29498e-06 -3.16395e-06 -0.0396414 0.00400752 3.74582e-06 0.0891245 -0.203246)
(-2.50889e-06 1.95269e-06 -1.37101e-06 -2.69424e-06 -0.0396459 0.00397467 -2.57024e-06 0.0891338 -0.203245)
(-1.69464e-06 -5.07039e-07 1.60993e-06 2.97407e-06 -0.0396507 0.00397936 -4.4284e-05 0.0891475 -0.203248)
(1.18066e-06 -8.2914e-07 1.08548e-06 3.28629e-06 -0.0396095 0.00400766 -2.51257e-05 0.0891229 -0.203238)
(-6.18535e-07 -4.34817e-07 -1.97138e-06 -2.72058e-06 -0.0396398 0.00401003 1.72556e-06 0.0891328 -0.203252)
(-2.35717e-06 -4.63883e-06 1.22647e-06 -2.43558e-06 -0.0396507 0.00398527 -5.11157e-05 0.089005 -0.203234)
(-3.28261e-06 7.50997e-06 5.52485e-07 1.83365e-06 -0.0396023 0.00400851 -4.85242e-05 0.0889661 -0.203215)
(-2.20949e-05 -3.76201e-06 2.88694e-06 2.42906e-06 -0.0396749 0.00398337 -6.34487e-05 0.0892009 -0.203236)
(-0.00020971 -0.000166327 -8.30244e-05 -2.93893e-05 -0.0396439 0.00400307 -0.000297398 0.0890418 -0.203168)
(-0.00186982 -0.000753555 -0.000846359 -0.000231435 -0.0391071 0.00390595 -0.00215169 0.0877145 -0.203469)
(-0.0170961 -0.00100833 0.00471533 -0.000760033 -0.0372516 0.00345264 -0.0210453 0.0811826 -0.20536)
(-0.0819082 0.00281262 0.107778 -0.00643811 -0.0351825 0.00544033 -0.204628 0.0763466 -0.154198)
(-0.0860807 -0.00311121 -0.112198 0.00666366 -0.0220738 0.00482383 0.213045 0.0480299 -0.152225)
(-0.0177811 0.000666113 -0.00487429 0.000873243 -0.0235921 0.00285009 0.0220276 0.0507761 -0.205728)
(-0.00195342 0.000561999 0.000910562 0.000262542 -0.0249491 0.00330803 0.00242203 0.0555579 -0.203762)
(-0.000235832 0.000123553 9.66068e-05 4.95208e-05 -0.025304 0.00339823 0.000322571 0.0566085 -0.203428)
(-2.63659e-05 1.14265e-05 -4.46546e-06 4.67196e-07 -0.0253073 0.00340007 7.50801e-05 0.0565924 -0.20348)
(-3.58862e-06 -4.74138e-06 -7.14187e-07 -2.76958e-06 -0.0252654 0.00338765 3.55793e-05 0.0568886 -0.203511)
(-1.72124e-06 -4.79446e-06 -1.04979e-07 -1.2745e-06 -0.025268 0.00339466 5.25669e-05 0.056544 -0.203481)
(-1.90274e-06 4.37301e-06 -1.04902e-06 -2.78537e-07 -0.0253018 0.00340228 2.36143e-05 0.0566778 -0.203512)
(-4.23493e-07 -1.50985e-06 8.70894e-07 1.52188e-06 -0.0252767 0.00339801 1.44321e-05 0.0566801 -0.203503)
(5.1422e-08 -4.45816e-06 1.34706e-06 6.01518e-09 -0.0253042 0.00339739 3.10795e-05 0.0566688 -0.203505)
(-1.29121e-06 -1.75919e-07 -7.81524e-07 -3.00268e-06 -0.0252873 0.00339679 1.3427e-05 0.0565456 -0.203489)
(-1.42068e-06 6.46026e-06 -1.01266e-06 2.31054e-06 -0.0253058 0.00340152 1.88061e-06 0.0566645 -0.203504)
(3.58418e-07 5.05253e-06 -6.1178e-07 3.39214e-06 -0.025294 0.00338343 -4.14954e-06 0.0568735 -0.203512)
(5.17281e-07 -3.15818e-06 5.44315e-07 -5.53187e-07 -0.0253183 0.00339006 1.60655e-06 0.0567172 -0.20351)
(-7.09494e-07 -4.03124e-06 1.2649e-06 -2.75141e-08 -0.0252957 0.00339537 -9.28976e-08 0.056674 -0.203507)
(1.16678e-07 4.20836e-06 -1.84315e-06 7.56496e-07 -0.0253069 0.00339773 -3.88781e-06 0.0566781 -0.203506)
(6.31809e-07 -1.66942e-07 4.93666e-07 -5.83245e-07 -0.025319 0.00339044 9.78565e-07 0.0567172 -0.203512)
(-1.08812e-07 -5.25435e-06 1.66394e-06 -7.53391e-07 -0.025296 0.00339515 1.0683e-06 0.0566744 -0.203506)
(-5.5629e-07 -3.1877e-07 -1.01833e-06 -2.68554e-06 -0.0253049 0.00339672 -5.03136e-08 0.0566664 -0.203502)
(-1.63826e-06 1.584e-06 -8.6891e-07 -1.79362e-06 -0.025301 0.00339939 -5.74954e-06 0.0566693 -0.203507)
(-1.08136e-06 2.52659e-06 9.13565e-07 3.23887e-06 -0.025305 0.00339944 -1.9619e-05 0.056678 -0.203507)
(1.08911e-07 -1.00589e-07 8.79977e-07 2.87776e-06 -0.0252818 0.00338705 -2.09798e-05 0.0567654 -0.203503)
(-1.16047e-06 -1.71533e-06 -1.11076e-06 -1.82212e-06 -0.0252976 0.00339624 -3.71152e-05 0.0566771 -0.203509)
(-1.50456e-06 5.59489e-07 1.22442e-07 -1.57545e-06 -0.0252831 0.00340022 -4.8721e-05 0.0566743 -0.203499)
(-3.17206e-06 3.35897e-06 9.43362e-07 1.54919e-06 -0.0252611 0.00338223 -3.03775e-05 0.0567528 -0.203487)
(-2.70503e-05 -9.35191e-06 3.49865e-06 -2.18571e-06 -0.0253208 0.00340303 -6.80874e-05 0.0567102 -0.203492)
(-0.000236899 -0.000123096 -9.69348e-05 -4.94338e-05 -0.0253032 0.00339606 -0.000324525 0.0565842 -0.20342)
(-0.00195349 -0.000559329 -0.000910391 -0.000260241 -0.0249658 0.0033016 -0.00242688 0.0555866 -0.203761)
(-0.0177795 -0.000669024 0.0048763 -0.000872999 -0.0235918 0.00284978 -0.0220499 0.0507759 -0.205726)
(-0.0860894 0.00310894 0.11218 -0.00665953 -0.0220443 0.00481894 -0.213008 0.0480274 -0.152211)
(-0.0887631 -0.00259234 -0.116054 0.0053854 -0.013961 0.00255608 0.220394 0.0304456 -0.151211)
(-0.0183774 0.000425372 -0.00501867 0.000791402 -0.0148923 0.000983076 0.0229729 0.0318348 -0.206554)
(-0.0020348 0.000414488 0.000955455 0.000225344 -0.0159501 0.00129891 0.00267828 0.0351321 -0.204508)
(-0.000260502 9.73061e-05 0.000103086 4.98105e-05 -0.0162041 0.00134823 0.000361748 0.036146 -0.204184)
(-3.16234e-05 1.24183e-05 -5.55743e-06 3.625e-06 -0.0161947 0.00134485 9.28635e-05 0.0362336 -0.204247)
(-4.17572e-06 -1.36219e-06 -1.13648e-06 -2.18826e-06 -0.0162136 0.00134442 4.94857e-05 0.03639 -0.204281)
(-1.44613e-06 -5.79253e-06 1.58535e-06 -2.12286e-06 -0.0161697 0.00133768 3.47731e-05 0.036257 -0.204257)
(-1.59414e-06 2.49567e-06 -4.48805e-07 8.64157e-07 -0.016207 0.00135187 3.76079e-05 0.0362163 -0.204271)
(-8.88105e-07 -2.21251e-06 5.66042e-07 -5.36722e-07 -0.0162006 0.00134594 1.55779e-05 0.0363636 -0.204281)
(-2.36202e-07 -4.26861e-06 9.97708e-07 -1.46796e-06 -0.016201 0.00134704 -3.58055e-07 0.0361171 -0.204256)
(-7.28715e-07 -3.46163e-07 -1.52686e-07 -1.79087e-06 -0.0161797 0.00134327 1.07448e-05 0.0362045 -0.204258)
(-8.86961e-07 1.05362e-06 -1.4479e-06 -1.71501e-07 -0.0162032 0.00135064 1.79345e-05 0.036114 -0.204252)
(1.43034e-07 4.48033e-06 -7.75075e-07 3.44491e-06 -0.0162206 0.00134701 -1.39374e-06 0.0361368 -0.204254)
(1.78176e-07 -1.68293e-07 1.27756e-06 1.14793e-06 -0.0162183 0.00135464 1.54283e-06 0.0362368 -0.20427)
(-6.44839e-07 -3.5891e-06 8.60598e-07 -1.23617e-06 -0.0162045 0.00134677 2.54179e-07 0.0362151 -0.20427)
(1.1135e-07 2.42454e-06 -8.61056e-07 9.40728e-07 -0.0162035 0.00134777 -3.3376e-06 0.0361237 -0.204257)
(4.22104e-07 1.13104e-06 -5.39452e-08 4.57211e-07 -0.0162184 0.00135492 2.83951e-07 0.0362366 -0.204272)
(-2.70858e-07 -4.69173e-06 1.07342e-06 -2.16044e-06 -0.0162046 0.00134677 6.40019e-07 0.0362151 -0.204269)
(-5.33568e-07 -7.91171e-07 -4.47546e-07 -1.68481e-06 -0.0162042 0.00134546 -2.17004e-06 0.0361144 -0.204252)
(-1.32401e-06 1.93661e-06 -8.28227e-07 7.31176e-08 -0.0162118 0.00135313 -7.11554e-06 0.0362077 -0.204265)
(-7.60369e-07 3.32544e-06 -8.58317e-07 2.33864e-06 -0.016216 0.00135137 -3.16654e-05 0.0362127 -0.204265)
(1.68457e-07 6.50719e-07 4.45609e-07 1.97324e-06 -0.0161978 0.00134267 -1.85082e-05 0.0362365 -0.204263)
(-1.50918e-06 -6.97121e-07 6.62284e-07 -7.17167e-07 -0.0162054 0.00134673 -6.68727e-06 0.0362162 -0.204271)
(-1.6829e-06 2.65106e-06 -1.57613e-06 -8.08303e-07 -0.0161963 0.00134641 -4.77572e-05 0.0362668 -0.204265)
(-3.40466e-06 -2.56875e-08 1.11562e-06 7.88954e-07 -0.0161905 0.00133742 -4.53565e-05 0.0362787 -0.204254)
(-3.22915e-05 -1.21799e-05 5.65438e-06 -5.01715e-06 -0.0162244 0.00135405 -7.34664e-05 0.0362316 -0.204248)
(-0.000261321 -9.53317e-05 -0.000103312 -4.94125e-05 -0.0161988 0.00134652 -0.000378625 0.0360367 -0.204165)
(-0.00203453 -0.000411277 -0.000955615 -0.00022256 -0.0159599 0.00130679 -0.00268119 0.0351449 -0.204504)
(-0.018376 -0.000424036 0.0050188 -0.000790111 -0.0148928 0.000982431 -0.0229742 0.0318351 -0.206551)
(-0.0887622 0.00259604 0.116044 -0.00538725 -0.0139513 0.00254808 -0.220374 0.0305871 -0.151219)
(-0.0904186 -0.0018578 -0.118882 0.00378491 -0.00882807 0.00123924 0.225786 0.0192937 -0.15094)
(-0.0188131 0.00026829 -0.00512573 0.000627191 -0.00930574 0.000144457 0.0237415 0.0198881 -0.207555)
(-0.00210174 0.000299642 0.000983594 0.000176636 -0.0101081 0.000349098 0.00288401 0.0223217 -0.20549)
(-0.000280176 7.4623e-05 0.000105796 4.14471e-05 -0.0103206 0.000373306 0.000438974 0.0230137 -0.205167)
(-3.67657e-05 9.52659e-06 -5.22872e-06 4.00409e-06 -0.0103279 0.000369795 9.61152e-05 0.0232043 -0.205248)
(-4.73819e-06 2.63046e-07 -2.14988e-06 -1.2065e-06 -0.0103466 0.000379531 3.34685e-05 0.0231081 -0.205258)
(-1.11076e-06 -3.47912e-06 1.3849e-06 -1.69403e-06 -0.010311 0.000366476 3.34216e-05 0.0232029 -0.205258)
(-1.58551e-06 -1.80102e-06 6.03236e-07 -8.3258e-07 -0.0103276 0.000373681 3.66168e-05 0.0230788 -0.205258)
(-8.89916e-07 -3.05018e-07 -9.37029e-08 -2.29827e-07 -0.0103377 0.000374331 1.531e-06 0.0230935 -0.205259)
(-1.99408e-07 -2.92656e-07 8.12773e-07 -6.13454e-08 -0.0103084 0.000369486 1.37846e-05 0.0230767 -0.205249)
(-1.03192e-06 -6.25102e-07 -6.226e-08 -1.17757e-06 -0.0103166 0.000368368 9.53747e-06 0.0231881 -0.205261)
(-3.73524e-07 -1.7175e-06 -2.63039e-07 -1.48814e-06 -0.0103135 0.000371624 -1.08698e-05 0.0230729 -0.205242)
(6.22303e-07 2.02742e-06 1.88691e-07 2.10525e-06 -0.0103136 0.000375488 1.46304e-05 0.0230033 -0.205234)
(-4.18934e-07 6.41963e-08 4.94852e-07 1.04515e-06 -0.0103338 0.000376501 1.61476e-05 0.0230916 -0.205255)
(-7.50934e-07 -1.06055e-06 -1.10409e-07 -5.66396e-07 -0.0103264 0.000371882 -1.40953e-05 0.023079 -0.205257)
(4.55354e-07 1.43191e-06 -2.12766e-07 9.17374e-07 -0.0103099 0.000370065 -2.57416e-06 0.0230814 -0.205249)
(1.1575e-08 -3.91687e-07 2.94485e-07 -2.04835e-07 -0.0103338 0.000376458 1.40448e-05 0.0230915 -0.205257)
(-5.37215e-07 -2.40982e-06 -2.28297e-07 -1.72314e-06 -0.0103262 0.000372419 -1.43712e-05 0.0230788 -0.205256)
(-1.09578e-07 -1.75534e-06 2.52866e-07 -1.79858e-06 -0.0103157 0.000368691 -3.28386e-06 0.0230717 -0.205243)
(-8.33574e-07 -7.89644e-07 3.13202e-07 -8.96559e-07 -0.0103238 0.000373623 6.55643e-06 0.0229906 -0.20524)
(-7.01334e-07 5.31811e-06 -1.17683e-06 3.54685e-06 -0.0103306 0.000374327 -1.50023e-05 0.0229913 -0.20524)
(-5.02251e-07 2.03292e-06 -4.6723e-08 2.31622e-06 -0.0103287 0.000374764 -1.71508e-05 0.0232042 -0.205263)
(-1.71678e-06 -1.4156e-06 -3.64543e-07 -1.14612e-06 -0.0103266 0.000372229 -3.58722e-05 0.0230788 -0.205258)
(-1.20333e-06 3.53137e-06 -1.74136e-06 3.35288e-07 -0.01032 0.000371478 -4.71552e-05 0.023093 -0.205249)
(-4.01383e-06 -2.25013e-06 2.47247e-06 -6.45587e-07 -0.0103167 0.000371779 -3.04641e-05 0.0231303 -0.205242)
(-3.70906e-05 -1.10187e-05 5.32029e-06 -5.50327e-06 -0.0103312 0.000374356 -9.2907e-05 0.0230038 -0.205224)
(-0.000280408 -7.02003e-05 -0.000106386 -3.9044e-05 -0.0103082 0.000370119 -0.000440334 0.0230016 -0.205151)
(-0.00210163 -0.000298111 -0.000983209 -0.000174933 -0.0101137 0.000353039 -0.00287147 0.0223291 -0.205483)
(-0.0188124 -0.0002673 0.00512456 -0.00062706 -0.00930661 0.00014388 -0.0237425 0.0198874 -0.207553)
(-0.0904149 0.00186171 0.118876 -0.0037891 -0.00883673 0.00123873 -0.225777 0.019309 -0.150943)
(-0.091436 -0.00121459 -0.120751 0.00243874 -0.00557426 0.000649571 0.229352 0.0121951 -0.150922)
(-0.019099 0.000169362 -0.0051967 0.000452005 -0.00577499 -5.46274e-05 0.024338 0.0123916 -0.208353)
(-0.00215195 0.000211524 0.00100123 0.000133341 -0.00638586 7.26942e-05 0.00304224 0.0141904 -0.206297)
(-0.000295029 5.33557e-05 0.000107226 3.06423e-05 -0.00654362 8.84571e-05 0.000461494 0.0146037 -0.205969)
(-4.01541e-05 7.20504e-06 -4.31236e-06 3.97946e-06 -0.00656454 8.8788e-05 9.98282e-05 0.0146747 -0.206047)
(-5.31535e-06 2.01578e-06 -1.80032e-06 4.95107e-07 -0.00656406 9.47236e-05 4.61976e-05 0.0146762 -0.206062)
(-1.37135e-06 -1.9959e-06 4.15353e-07 -1.4647e-06 -0.00655936 9.0865e-05 3.22001e-05 0.0147707 -0.206069)
(-1.3013e-06 -2.85683e-06 1.12217e-06 -1.50863e-06 -0.00655228 8.78082e-05 2.21949e-05 0.0146601 -0.206064)
(-7.33858e-07 1.63402e-06 -2.72934e-07 8.15961e-07 -0.00655804 9.21476e-05 1.53764e-05 0.0146673 -0.206064)
(-4.25751e-07 -4.1418e-08 -1.94814e-07 -4.45421e-07 -0.0065461 8.57949e-05 1.33978e-05 0.0147569 -0.206068)
(-1.01407e-06 -1.35703e-06 2.74859e-07 -1.52675e-06 -0.00655647 8.80587e-05 8.7638e-06 0.0146674 -0.206062)
(-2.30397e-07 1.66151e-06 -2.40178e-08 1.02092e-06 -0.00654293 8.49953e-05 -1.02612e-05 0.0146792 -0.206053)
(6.49692e-07 4.1614e-07 2.00234e-07 1.12759e-06 -0.00653515 8.64075e-05 2.07569e-06 0.0147638 -0.206055)
(-3.56153e-07 -2.74073e-06 5.56394e-07 -1.22393e-06 -0.00655532 8.87661e-05 1.57912e-05 0.0146691 -0.20606)
(-6.70394e-07 1.18647e-06 -4.26609e-07 6.75379e-07 -0.0065529 8.63626e-05 -3.62418e-07 0.0146616 -0.206062)
(1.83662e-07 9.51859e-07 5.42544e-08 7.92869e-07 -0.00654685 8.60555e-05 -1.88962e-06 0.0147606 -0.206068)
(-1.05999e-07 -2.12564e-06 4.16994e-07 -1.33764e-06 -0.00655547 8.86474e-05 -2.52533e-07 0.0146689 -0.206063)
(-5.89607e-07 -1.07107e-06 -4.80043e-07 -1.33871e-06 -0.00655167 8.73988e-05 -1.40624e-06 0.0146611 -0.206061)
(-3.68252e-07 -3.07779e-07 -2.0676e-07 -5.94636e-07 -0.00654776 8.50781e-05 -1.73626e-05 0.0146757 -0.206053)
(-2.5492e-07 -1.05319e-06 2.98849e-07 -7.32074e-07 -0.00653712 8.44514e-05 -2.11431e-05 0.0146581 -0.206049)
(-1.17813e-07 2.34251e-06 -6.30097e-07 1.7754e-06 -0.00653464 8.46824e-05 1.85686e-08 0.0145825 -0.206041)
(-7.70136e-07 1.45534e-06 2.61215e-08 1.83061e-06 -0.00656341 9.11862e-05 -2.60787e-06 0.014676 -0.206062)
(-1.90536e-06 1.04501e-06 5.01126e-09 6.73429e-07 -0.00655169 8.78313e-05 -2.22328e-05 0.0146605 -0.206065)
(-1.5828e-06 4.63386e-06 -1.66614e-06 2.12497e-06 -0.00655324 9.02861e-05 -4.61792e-05 0.0147647 -0.206067)
(-4.57237e-06 -2.27765e-06 1.6913e-06 -1.00951e-06 -0.00654885 9.12622e-05 -5.75556e-05 0.0147779 -0.206056)
(-3.99711e-05 -1.04688e-05 5.32227e-06 -6.35958e-06 -0.00654082 8.64204e-05 -8.40085e-05 0.0146648 -0.206032)
(-0.000295207 -5.18264e-05 -0.000107575 -2.98318e-05 -0.00654017 8.56282e-05 -0.000448423 0.0146152 -0.205955)
(-0.00215213 -0.000210968 -0.00100086 -0.000132167 -0.00638936 7.36033e-05 -0.00304291 0.0141945 -0.20629)
(-0.0190988 -0.000168641 0.00519594 -0.000452115 -0.00577567 -5.50371e-05 -0.0243395 0.0123901 -0.208352)
(-0.091434 0.00121791 0.120748 -0.00244297 -0.00557886 0.000654674 -0.229348 0.0122027 -0.150924)
(-0.0920626 -0.000750079 -0.121909 0.0014887 -0.00352032 0.000378781 0.231562 0.00768986 -0.150949)
(-0.0192742 0.000105972 -0.0052411 0.000302442 -0.00357927 -5.37377e-05 0.0247363 0.00771785 -0.208881)
(-0.00218602 0.000145914 0.00101221 9.8481e-05 -0.00403245 2.57639e-05 0.0031616 0.00888558 -0.206829)
(-0.000306048 3.88855e-05 0.000109015 2.35187e-05 -0.0041441 3.47549e-05 0.00048974 0.00924747 -0.206511)
(-4.27951e-05 5.43936e-06 -3.97541e-06 3.50304e-06 -0.00416177 3.67258e-05 0.000103489 0.00930063 -0.20659)
(-5.82702e-06 1.30027e-06 -1.73447e-06 3.91056e-07 -0.00415991 3.66206e-05 4.57733e-05 0.00930391 -0.206606)
(-1.5115e-06 -1.124e-06 1.82287e-09 -1.10546e-06 -0.0041663 4.01453e-05 3.09926e-05 0.00930774 -0.206609)
(-1.12938e-06 -1.53735e-06 8.59741e-07 -8.78837e-07 -0.00415291 3.40356e-05 2.17058e-05 0.00929429 -0.20661)
(-6.77275e-07 9.31085e-07 -4.96362e-07 2.93096e-07 -0.00415584 3.5664e-05 1.54519e-05 0.0092987 -0.206609)
(-6.6795e-07 2.14539e-08 -4.9909e-09 -3.91361e-07 -0.00415854 3.50373e-05 1.27473e-05 0.00930185 -0.206609)
(-7.38646e-07 8.79009e-09 -2.22181e-07 -3.93747e-07 -0.00415539 3.75508e-05 -4.8657e-06 0.0092984 -0.206606)
(1.57343e-07 2.5454e-06 -5.93296e-07 1.70097e-06 -0.00414521 3.27093e-05 3.9754e-06 0.00930209 -0.206596)
(1.73333e-07 -4.49406e-07 9.42843e-07 3.19384e-07 -0.00415678 3.46405e-05 1.59428e-05 0.00939222 -0.206606)
(-5.09376e-07 -3.48524e-06 4.85886e-07 -2.14905e-06 -0.00415461 3.42113e-05 1.92704e-06 0.00930108 -0.206606)
(-3.47574e-07 6.33012e-07 -6.52532e-07 2.62607e-07 -0.00415736 3.42837e-05 -2.74874e-07 0.0092948 -0.206606)
(5.27492e-08 9.17725e-07 2.44186e-07 8.42794e-07 -0.004159 3.51836e-05 -1.41539e-06 0.00930506 -0.206608)
(-4.14742e-07 -1.3555e-06 5.63156e-07 -8.51174e-07 -0.00415461 3.41325e-05 -7.93349e-07 0.00930085 -0.206608)
(-3.88614e-07 -8.67865e-07 -9.42151e-07 -1.36377e-06 -0.00415369 3.26767e-05 -1.53284e-05 0.00929578 -0.206606)
(1.17501e-08 1.15365e-06 -3.36627e-07 6.09411e-07 -0.00414149 3.23237e-05 -4.04989e-06 0.00922782 -0.206588)
(-3.59567e-07 1.8356e-06 2.34055e-07 1.70962e-06 -0.00415235 3.31195e-05 -7.54672e-06 0.00937789 -0.206603)
(-1.88798e-07 6.18738e-08 1.70127e-07 4.02727e-07 -0.00413649 3.03555e-05 -1.2605e-05 0.00938056 -0.206598)
(-7.22645e-07 -1.37726e-06 5.83061e-07 -4.43241e-07 -0.00415932 3.82389e-05 -2.39799e-06 0.00930299 -0.206606)
(-1.65791e-06 6.16978e-07 -5.44559e-07 3.84123e-07 -0.00415262 3.45079e-05 -2.19463e-05 0.00929498 -0.20661)
(-1.53992e-06 4.09906e-06 -1.05519e-06 2.53773e-06 -0.0041629 3.66847e-05 -3.16781e-05 0.00930563 -0.206607)
(-5.71074e-06 2.33871e-07 1.69933e-06 5.85537e-07 -0.00416518 3.99152e-05 -4.40709e-05 0.00939794 -0.206606)
(-4.28551e-05 -9.28334e-06 4.1935e-06 -6.4493e-06 -0.00415129 3.36299e-05 -0.000115164 0.00938186 -0.206587)
(-0.000305569 -3.99071e-05 -0.00010895 -2.43801e-05 -0.00413575 3.07345e-05 -0.000489904 0.00917703 -0.206487)
(-0.00218609 -0.000145212 -0.00101134 -9.71121e-05 -0.00403504 2.53161e-05 -0.00314851 0.00888748 -0.206822)
(-0.0192746 -0.0001052 0.00524077 -0.000302312 -0.0035797 -5.41736e-05 -0.0247384 0.00771578 -0.20888)
(-0.0920622 0.000753214 0.12191 -0.0014929 -0.00352048 0.000382722 -0.231562 0.00769538 -0.150951)
(-0.0924478 -0.000447563 -0.1226 0.000880539 -0.0022304 0.000235076 0.232879 0.00483325 -0.150973)
(-0.0193771 6.69357e-05 -0.00526731 0.000192765 -0.00222682 -2.6664e-05 0.0249936 0.00480801 -0.209205)
(-0.00220774 9.85591e-05 0.00101892 7.0748e-05 -0.00254465 2.31636e-05 0.00324842 0.00558547 -0.207164)
(-0.000314024 2.74914e-05 0.000109418 1.74541e-05 -0.00263041 2.69481e-05 0.000511498 0.0058437 -0.206851)
(-4.47796e-05 4.04185e-06 -3.93921e-06 2.85032e-06 -0.0026478 2.79337e-05 0.000106634 0.00588224 -0.20693)
(-6.23705e-06 1.11094e-06 -1.11642e-06 6.18942e-07 -0.00264314 2.68743e-05 4.54283e-05 0.00588661 -0.206949)
(-1.62533e-06 -5.9577e-07 -1.01656e-07 -7.47164e-07 -0.00264616 3.07793e-05 3.00013e-05 0.0058876 -0.206951)