/*--------------------------------*- C++ -*----------------------------------*\
| =========                 |                                                 |
| \\      /  F ield         | OpenFOAM: The Open Source CFD Toolbox           |
|  \\    /   O peration     | Version:  2106                                  |
|   \\  /    A nd           | Website:  www.openfoam.com                      |
|    \\/     M anipulation  |                                                 |
\*---------------------------------------------------------------------------*/
FoamFile
{
    version     2.0;
    format      ascii;
    arch        "LSB;label=32;scalar=64";
    class       volVectorField;
    location    "921";
    object      D;
}
// * * * * * * * * * * * * * * * * * * * * * * * * * * * * * * * * * * * * * //

dimensions      [0 1 0 0 0 0 0];

internalField   nonuniform List<vector> 
9000
(
(1.14009e-05 2.08533e-05 3.13264e-06)
(1.32489e-06 2.19596e-05 8.18196e-08)
(2.18757e-07 2.33117e-05 1.22928e-06)
(3.86747e-08 2.36143e-05 1.4427e-06)
(4.69476e-09 2.36232e-05 1.44577e-06)
(1.78287e-09 2.35884e-05 1.42376e-06)
(2.11859e-09 2.36077e-05 1.43565e-06)
(9.24763e-10 2.35875e-05 1.42355e-06)
(2.16594e-09 2.3587e-05 1.42309e-06)
(3.17331e-10 2.36141e-05 1.44048e-06)
(-2.19966e-09 2.35985e-05 1.42892e-06)
(1.93704e-09 2.3571e-05 1.41072e-06)
(3.04173e-09 2.36102e-05 1.43809e-06)
(-1.12411e-09 2.36111e-05 1.43829e-06)
(1.36033e-10 2.36022e-05 1.43087e-06)
(1.15858e-09 2.36152e-05 1.44093e-06)
(-1.61969e-09 2.36109e-05 1.43809e-06)
(-2.88869e-10 2.36028e-05 1.4313e-06)
(-1.61799e-09 2.36118e-05 1.43912e-06)
(-1.73258e-09 2.3573e-05 1.4125e-06)
(1.48918e-09 2.35844e-05 1.42141e-06)
(1.16056e-10 2.36128e-05 1.43955e-06)
(-2.29514e-09 2.36152e-05 1.44113e-06)
(-2.19609e-09 2.35897e-05 1.4249e-06)
(-2.21123e-09 2.36104e-05 1.43837e-06)
(-7.35488e-09 2.35978e-05 1.42949e-06)
(-3.81251e-08 2.35957e-05 1.42942e-06)
(-2.17037e-07 2.33053e-05 1.22529e-06)
(-1.32474e-06 2.19591e-05 8.15462e-08)
(-1.1401e-05 2.08522e-05 3.13209e-06)
(1.10743e-05 1.25639e-05 -5.84693e-06)
(1.2225e-06 1.31887e-05 -9.25912e-06)
(1.42785e-07 1.40062e-05 -8.68762e-06)
(2.10156e-08 1.42109e-05 -8.6073e-06)
(5.16189e-09 1.42169e-05 -8.60817e-06)
(2.78597e-09 1.41994e-05 -8.6065e-06)
(2.19742e-09 1.42058e-05 -8.6099e-06)
(1.41827e-09 1.41996e-05 -8.60569e-06)
(1.22892e-09 1.41991e-05 -8.60596e-06)
(9.26923e-10 1.42096e-05 -8.60941e-06)
(4.34242e-10 1.42062e-05 -8.60728e-06)
(6.23112e-10 1.41956e-05 -8.60353e-06)
(4.90832e-10 1.42065e-05 -8.6098e-06)
(-1.00944e-10 1.42054e-05 -8.60885e-06)
(-4.24688e-11 1.42088e-05 -8.60723e-06)
(-2.18381e-11 1.42105e-05 -8.60937e-06)
(-2.95607e-10 1.42053e-05 -8.60888e-06)
(-1.84467e-10 1.42091e-05 -8.60717e-06)
(-4.14045e-10 1.42082e-05 -8.60949e-06)
(-6.92306e-10 1.4197e-05 -8.60349e-06)
(-9.35334e-10 1.41976e-05 -8.60545e-06)
(-1.21224e-09 1.42081e-05 -8.61012e-06)
(-1.55516e-09 1.42104e-05 -8.60935e-06)
(-1.93794e-09 1.42007e-05 -8.6058e-06)
(-2.57761e-09 1.42064e-05 -8.61016e-06)
(-5.36256e-09 1.42075e-05 -8.60439e-06)
(-2.10469e-08 1.42053e-05 -8.6052e-06)
(-1.42822e-07 1.39996e-05 -8.68764e-06)
(-1.22262e-06 1.31883e-05 -9.2591e-06)
(-1.10743e-05 1.25627e-05 -5.84719e-06)
(1.11451e-05 7.77713e-06 -7.4106e-06)
(1.21845e-06 8.20001e-06 -1.09328e-05)
(1.29702e-07 8.7472e-06 -1.04557e-05)
(1.54703e-08 8.89421e-06 -1.04013e-05)
(5.30706e-09 8.90015e-06 -1.04033e-05)
(3.12718e-09 8.89471e-06 -1.04005e-05)
(2.21094e-09 8.89172e-06 -1.04036e-05)
(1.80831e-09 8.89702e-06 -1.04005e-05)
(7.06413e-10 8.89634e-06 -1.04008e-05)
(8.16838e-10 8.89482e-06 -1.04035e-05)
(1.50062e-09 8.89236e-06 -1.04027e-05)
(3.16764e-10 8.89426e-06 -1.03991e-05)
(-7.8655e-10 8.8912e-06 -1.04021e-05)
(8.75111e-11 8.89509e-06 -1.04018e-05)
(1.19886e-10 8.8944e-06 -1.04029e-05)
(-5.4274e-10 8.89552e-06 -1.04036e-05)
(3.63392e-11 8.89509e-06 -1.04019e-05)
(1.50739e-10 8.89443e-06 -1.04029e-05)
(2.34434e-10 8.89395e-06 -1.04032e-05)
(-1.26164e-10 8.89522e-06 -1.03996e-05)
(-1.8377e-09 8.89592e-06 -1.03997e-05)
(-1.93995e-09 8.89212e-06 -1.04031e-05)
(-1.10836e-09 8.89555e-06 -1.04036e-05)
(-1.84295e-09 8.89689e-06 -1.04011e-05)
(-2.6672e-09 8.89067e-06 -1.04032e-05)
(-4.50121e-09 8.90254e-06 -1.04001e-05)
(-1.61348e-08 8.89049e-06 -1.04001e-05)
(-1.3035e-07 8.74564e-06 -1.04539e-05)
(-1.21849e-06 8.19981e-06 -1.09326e-05)
(-1.1145e-05 7.77551e-06 -7.41107e-06)
(1.15307e-05 4.89015e-06 -7.09795e-06)
(1.26087e-06 5.15977e-06 -1.0743e-05)
(1.42486e-07 5.5574e-06 -1.02383e-05)
(1.66207e-08 5.66389e-06 -1.018e-05)
(4.82742e-09 5.66962e-06 -1.01823e-05)
(3.0953e-09 5.66625e-06 -1.01821e-05)
(2.31642e-09 5.66253e-06 -1.01824e-05)
(1.69067e-09 5.66733e-06 -1.01835e-05)
(9.04655e-10 5.66569e-06 -1.01827e-05)
(9.79951e-10 5.66608e-06 -1.01823e-05)
(1.40478e-09 5.6642e-06 -1.01823e-05)
(1.3432e-10 5.66529e-06 -1.01824e-05)
(-5.92502e-10 5.66565e-06 -1.01811e-05)
(2.84988e-10 5.671e-06 -1.01821e-05)
(1.17506e-11 5.66615e-06 -1.01822e-05)
(-4.42903e-10 5.6667e-06 -1.01825e-05)
(4.5424e-11 5.67096e-06 -1.01823e-05)
(1.1851e-10 5.66613e-06 -1.01822e-05)
(5.08007e-11 5.66546e-06 -1.01816e-05)
(-3.3845e-10 5.66614e-06 -1.01831e-05)
(-1.78662e-09 5.6666e-06 -1.01826e-05)
(-1.81624e-09 5.66572e-06 -1.01815e-05)
(-1.14988e-09 5.66684e-06 -1.01825e-05)
(-2.01939e-09 5.66585e-06 -1.01834e-05)
(-2.62876e-09 5.66345e-06 -1.01812e-05)
(-4.09145e-09 5.67097e-06 -1.01828e-05)
(-1.69639e-08 5.66141e-06 -1.01794e-05)
(-1.43156e-07 5.56054e-06 -1.02373e-05)
(-1.26113e-06 5.15971e-06 -1.07428e-05)
(-1.15301e-05 4.88772e-06 -7.09776e-06)
(1.20056e-05 3.08831e-06 -6.68532e-06)
(1.31974e-06 3.23565e-06 -1.04719e-05)
(1.6087e-07 3.53283e-06 -9.93139e-06)
(1.98169e-08 3.61011e-06 -9.86561e-06)
(4.63254e-09 3.61481e-06 -9.86754e-06)
(2.74374e-09 3.61726e-06 -9.86871e-06)
(2.33238e-09 3.61104e-06 -9.86822e-06)
(1.58489e-09 3.61406e-06 -9.86904e-06)
(1.08641e-09 3.61413e-06 -9.86856e-06)
(1.20256e-09 3.61289e-06 -9.868e-06)
(1.12852e-09 3.61109e-06 -9.86793e-06)
(2.27898e-10 3.61239e-06 -9.86838e-06)
(-3.42541e-10 3.61535e-06 -9.86859e-06)
(2.64148e-10 3.61644e-06 -9.86939e-06)
(5.31961e-11 3.61342e-06 -9.86813e-06)
(-4.10405e-10 3.6134e-06 -9.8685e-06)
(-1.13221e-11 3.61633e-06 -9.8695e-06)
(1.21153e-10 3.61341e-06 -9.86814e-06)
(-1.86077e-10 3.61243e-06 -9.86737e-06)
(-5.52949e-10 3.6131e-06 -9.86886e-06)
(-1.45437e-09 3.61356e-06 -9.86843e-06)
(-1.56713e-09 3.61481e-06 -9.86807e-06)
(-1.4688e-09 3.61393e-06 -9.86834e-06)
(-2.18714e-09 3.61402e-06 -9.86893e-06)
(-2.39596e-09 3.6141e-06 -9.86814e-06)
(-4.04333e-09 3.61619e-06 -9.8682e-06)
(-2.01031e-08 3.60821e-06 -9.86529e-06)
(-1.61349e-07 3.53446e-06 -9.93218e-06)
(-1.32009e-06 3.23565e-06 -1.04717e-05)
(-1.20041e-05 3.08795e-06 -6.68506e-06)
(1.24202e-05 1.94912e-06 -6.45414e-06)
(1.37751e-06 2.01604e-06 -1.03624e-05)
(1.77597e-07 2.23316e-06 -9.79613e-06)
(2.3245e-08 2.2923e-06 -9.72608e-06)
(4.8359e-09 2.29788e-06 -9.72805e-06)
(2.58669e-09 2.3004e-06 -9.73018e-06)
(2.19911e-09 2.29661e-06 -9.72911e-06)
(1.66692e-09 2.2964e-06 -9.72912e-06)
(1.09514e-09 2.29826e-06 -9.7294e-06)
(9.98798e-10 2.29478e-06 -9.72863e-06)
(9.50114e-10 2.29533e-06 -9.72876e-06)
(3.39513e-10 2.29432e-06 -9.72837e-06)
(-8.87164e-11 2.29603e-06 -9.72985e-06)
(3.48031e-10 2.29775e-06 -9.72936e-06)
(4.73142e-11 2.29589e-06 -9.72869e-06)
(-3.46565e-10 2.29506e-06 -9.72874e-06)
(-4.37785e-11 2.29763e-06 -9.7294e-06)
(-2.16778e-11 2.29592e-06 -9.72874e-06)
(-3.46154e-10 2.29421e-06 -9.7281e-06)
(-5.92011e-10 2.29531e-06 -9.72914e-06)
(-1.39548e-09 2.2957e-06 -9.72866e-06)
(-1.38639e-09 2.29773e-06 -9.72979e-06)
(-1.29711e-09 2.29637e-06 -9.72896e-06)
(-2.31776e-09 2.29742e-06 -9.7289e-06)
(-2.39733e-09 2.29813e-06 -9.73023e-06)
(-4.19483e-09 2.29728e-06 -9.72833e-06)
(-2.36685e-08 2.29004e-06 -9.72517e-06)
(-1.77879e-07 2.23404e-06 -9.79685e-06)
(-1.37766e-06 2.01607e-06 -1.03621e-05)
(-1.24184e-05 1.95094e-06 -6.4543e-06)
(1.27244e-05 1.22829e-06 -6.34383e-06)
(1.42539e-06 1.25134e-06 -1.03402e-05)
(1.90929e-07 1.40759e-06 -9.75745e-06)
(2.65357e-08 1.45111e-06 -9.68503e-06)
(5.11349e-09 1.45732e-06 -9.68683e-06)
(2.3312e-09 1.45743e-06 -9.68892e-06)
(2.1029e-09 1.45724e-06 -9.6887e-06)
(1.66107e-09 1.45492e-06 -9.68797e-06)
(9.63136e-10 1.456e-06 -9.68861e-06)
(1.02309e-09 1.45476e-06 -9.68815e-06)
(7.81751e-10 1.45573e-06 -9.68806e-06)
(1.22039e-10 1.45403e-06 -9.68805e-06)
(2.60941e-10 1.45463e-06 -9.68841e-06)
(5.21448e-10 1.45567e-06 -9.68795e-06)
(-8.66085e-11 1.45445e-06 -9.68773e-06)
(-2.6342e-10 1.45476e-06 -9.68798e-06)
(3.39031e-11 1.45556e-06 -9.68796e-06)
(-3.30056e-10 1.45452e-06 -9.68777e-06)
(-4.61646e-10 1.45386e-06 -9.6882e-06)
(-4.92878e-10 1.45333e-06 -9.68776e-06)
(-1.14779e-09 1.45339e-06 -9.68758e-06)
(-1.19549e-09 1.45716e-06 -9.68859e-06)
(-1.51371e-09 1.45495e-06 -9.68799e-06)
(-2.35972e-09 1.45624e-06 -9.68863e-06)
(-2.25455e-09 1.45748e-06 -9.68943e-06)
(-4.63106e-09 1.4546e-06 -9.68689e-06)
(-2.6757e-08 1.4498e-06 -9.68469e-06)
(-1.90989e-07 1.40809e-06 -9.75753e-06)
(-1.42554e-06 1.25136e-06 -1.03398e-05)
(-1.27231e-05 1.22959e-06 -6.34452e-06)
(1.29255e-05 7.73051e-07 -6.28835e-06)
(1.46118e-06 7.76239e-07 -1.03426e-05)
(2.01076e-07 8.865e-07 -9.74942e-06)
(2.88475e-08 9.1729e-07 -9.67564e-06)
(5.38378e-09 9.21882e-07 -9.67764e-06)
(2.33574e-09 9.22107e-07 -9.67886e-06)
(1.98263e-09 9.23121e-07 -9.67948e-06)
(1.54518e-09 9.20599e-07 -9.67859e-06)
(1.05841e-09 9.21187e-07 -9.67881e-06)
(9.97846e-10 9.21901e-07 -9.67874e-06)
(6.22082e-10 9.21112e-07 -9.67895e-06)
(9.09529e-11 9.20739e-07 -9.6788e-06)
(3.52625e-10 9.22347e-07 -9.67915e-06)
(5.23646e-10 9.21048e-07 -9.67846e-06)
(-1.15113e-11 9.20141e-07 -9.67849e-06)
(-1.82982e-10 9.21775e-07 -9.67862e-06)
(-9.83906e-11 9.20942e-07 -9.67849e-06)
(-4.04153e-10 9.20255e-07 -9.67845e-06)
(-6.24658e-10 9.20414e-07 -9.67902e-06)
(-7.28545e-10 9.2012e-07 -9.67879e-06)
(-8.78546e-10 9.19589e-07 -9.67883e-06)
(-8.98992e-10 9.21934e-07 -9.67916e-06)
(-1.46384e-09 9.2067e-07 -9.67865e-06)
(-2.28339e-09 9.22728e-07 -9.67914e-06)
(-2.43336e-09 9.24047e-07 -9.67996e-06)
(-5.0067e-09 9.20987e-07 -9.67778e-06)
(-2.88045e-08 9.16624e-07 -9.67588e-06)
(-2.01063e-07 8.86653e-07 -9.74919e-06)
(-1.46138e-06 7.76114e-07 -1.0342e-05)
(-1.29248e-05 7.73955e-07 -6.28875e-06)
(1.305e-05 4.85798e-07 -6.25685e-06)
(1.4857e-06 4.82074e-07 -1.03471e-05)
(2.08663e-07 5.56997e-07 -9.74746e-06)
(3.05906e-08 5.79381e-07 -9.67276e-06)
(5.60518e-09 5.82719e-07 -9.67477e-06)
(2.36916e-09 5.83011e-07 -9.67571e-06)
(1.8859e-09 5.83582e-07 -9.67639e-06)
(1.48788e-09 5.82119e-07 -9.67574e-06)
(1.11669e-09 5.82444e-07 -9.67573e-06)
(9.6549e-10 5.82971e-07 -9.67571e-06)
(4.18323e-10 5.82436e-07 -9.67577e-06)
(2.47231e-10 5.82848e-07 -9.67646e-06)
(5.10806e-10 5.84334e-07 -9.67631e-06)
(3.29444e-10 5.82424e-07 -9.6756e-06)
(1.75423e-11 5.81551e-07 -9.67583e-06)
(-1.06951e-10 5.82803e-07 -9.67576e-06)
(-1.83572e-10 5.82338e-07 -9.67564e-06)
(-5.76815e-10 5.81809e-07 -9.67569e-06)
(-5.52318e-10 5.81999e-07 -9.67632e-06)
(-6.60954e-10 5.82716e-07 -9.6761e-06)
(-8.48619e-10 5.83242e-07 -9.67651e-06)
(-7.92681e-10 5.8293e-07 -9.67587e-06)
(-1.43151e-09 5.82218e-07 -9.67576e-06)
(-2.04671e-09 5.83465e-07 -9.67624e-06)
(-2.37404e-09 5.85263e-07 -9.67656e-06)
(-5.61442e-09 5.83424e-07 -9.67489e-06)
(-3.06219e-08 5.78774e-07 -9.67361e-06)
(-2.08466e-07 5.56932e-07 -9.7472e-06)
(-1.48585e-06 4.81788e-07 -1.03468e-05)
(-1.30499e-05 4.86532e-07 -6.25693e-06)
(1.31242e-05 3.0427e-07 -6.23764e-06)
(1.50154e-06 2.99596e-07 -1.03495e-05)
(2.14185e-07 3.49391e-07 -9.7456e-06)
(3.19052e-08 3.65318e-07 -9.67069e-06)
(5.81009e-09 3.67553e-07 -9.67273e-06)
(2.41134e-09 3.67983e-07 -9.67359e-06)
(1.82002e-09 3.68305e-07 -9.67388e-06)
(1.43858e-09 3.67476e-07 -9.67369e-06)
(1.1206e-09 3.67667e-07 -9.67366e-06)
(9.36697e-10 3.67928e-07 -9.67343e-06)
(4.90061e-10 3.67686e-07 -9.67357e-06)
(3.41224e-10 3.68854e-07 -9.67407e-06)
(4.35978e-10 3.68833e-07 -9.67404e-06)
(1.68521e-10 3.67701e-07 -9.67355e-06)
(3.63958e-12 3.66493e-07 -9.6737e-06)
(-1.51478e-11 3.67835e-07 -9.67365e-06)
(-2.20935e-10 3.67663e-07 -9.67361e-06)
(-6.3324e-10 3.67114e-07 -9.67385e-06)
(-5.30503e-10 3.68905e-07 -9.67441e-06)
(-5.03876e-10 3.67246e-07 -9.67406e-06)
(-7.72017e-10 3.68979e-07 -9.67459e-06)
(-8.85759e-10 3.67961e-07 -9.67363e-06)
(-1.40756e-09 3.67596e-07 -9.67368e-06)
(-1.8983e-09 3.68293e-07 -9.67382e-06)
(-2.36352e-09 3.69275e-07 -9.67406e-06)
(-5.97108e-09 3.6819e-07 -9.67294e-06)
(-3.19935e-08 3.6606e-07 -9.67171e-06)
(-2.13934e-07 3.49172e-07 -9.74545e-06)
(-1.50165e-06 2.99367e-07 -1.03494e-05)
(-1.31245e-05 3.05089e-07 -6.23744e-06)
(1.31675e-05 1.88932e-07 -6.22543e-06)
(1.51141e-06 1.85659e-07 -1.03504e-05)
(2.18082e-07 2.18094e-07 -9.74405e-06)
(3.28316e-08 2.29139e-07 -9.66896e-06)
(5.94231e-09 2.30069e-07 -9.67109e-06)
(2.50313e-09 2.30988e-07 -9.6719e-06)
(1.78065e-09 2.31213e-07 -9.672e-06)
(1.39424e-09 2.30753e-07 -9.672e-06)
(1.09615e-09 2.30895e-07 -9.67198e-06)
(9.06954e-10 2.31047e-07 -9.67188e-06)
(5.40118e-10 2.30849e-07 -9.67185e-06)
(4.084e-10 2.3131e-07 -9.67244e-06)
(4.06348e-10 2.31558e-07 -9.67195e-06)
(-2.90058e-11 2.30945e-07 -9.67185e-06)
(8.83901e-13 2.306e-07 -9.6724e-06)
(1.41294e-10 2.31072e-07 -9.6719e-06)
(-2.77686e-10 2.30952e-07 -9.67188e-06)
(-5.01977e-10 2.30035e-07 -9.67208e-06)
(-5.75122e-10 2.32621e-07 -9.67255e-06)
(-6.10326e-10 2.3107e-07 -9.67251e-06)
(-6.35497e-10 2.31069e-07 -9.67253e-06)
(-9.03544e-10 2.30932e-07 -9.67194e-06)
(-1.38176e-09 2.30887e-07 -9.67197e-06)
(-1.80592e-09 2.31239e-07 -9.67195e-06)
(-2.37631e-09 2.31753e-07 -9.67192e-06)
(-6.11268e-09 2.3101e-07 -9.67103e-06)
(-3.30194e-08 2.29506e-07 -9.6698e-06)
(-2.17926e-07 2.17648e-07 -9.74412e-06)
(-1.51143e-06 1.855e-07 -1.03504e-05)
(-1.3168e-05 1.9018e-07 -6.22536e-06)
(1.31925e-05 1.1655e-07 -6.21839e-06)
(1.51748e-06 1.13622e-07 -1.03507e-05)
(2.20738e-07 1.34224e-07 -9.74299e-06)
(3.34341e-08 1.4166e-07 -9.6677e-06)
(6.0523e-09 1.42754e-07 -9.67026e-06)
(2.6483e-09 1.42775e-07 -9.67076e-06)
(1.7651e-09 1.43004e-07 -9.67076e-06)
(1.36243e-09 1.42771e-07 -9.67079e-06)
(1.0884e-09 1.42893e-07 -9.67078e-06)
(8.80613e-10 1.43061e-07 -9.67067e-06)
(5.27314e-10 1.42715e-07 -9.67072e-06)
(4.61274e-10 1.42483e-07 -9.67088e-06)
(4.25055e-10 1.43238e-07 -9.67059e-06)
(5.89953e-12 1.42937e-07 -9.67063e-06)
(9.42979e-12 1.43294e-07 -9.67113e-06)
(8.83439e-11 1.43039e-07 -9.67057e-06)
(-4.01866e-10 1.43009e-07 -9.67056e-06)
(-4.27628e-10 1.42923e-07 -9.67118e-06)
(-3.60098e-10 1.43919e-07 -9.67109e-06)
(-7.49371e-10 1.43628e-07 -9.67114e-06)
(-7.33155e-10 1.43491e-07 -9.67124e-06)
(-8.30479e-10 1.42599e-07 -9.67089e-06)
(-1.3484e-09 1.42912e-07 -9.67073e-06)
(-1.75266e-09 1.43027e-07 -9.67069e-06)
(-2.40758e-09 1.4331e-07 -9.67057e-06)
(-6.36693e-09 1.42601e-07 -9.66985e-06)
(-3.38159e-08 1.41544e-07 -9.66857e-06)
(-2.20526e-07 1.33335e-07 -9.74299e-06)
(-1.51725e-06 1.13521e-07 -1.03507e-05)
(-1.31931e-05 1.16793e-07 -6.21798e-06)
(1.32072e-05 6.94899e-08 -6.2141e-06)
(1.52079e-06 6.69069e-08 -1.03509e-05)
(2.22464e-07 7.94078e-08 -9.7423e-06)
(3.40392e-08 8.41526e-08 -9.66683e-06)
(6.10965e-09 8.52166e-08 -9.66935e-06)
(2.57746e-09 8.45386e-08 -9.67018e-06)
(1.77373e-09 8.49254e-08 -9.66999e-06)
(1.34506e-09 8.4835e-08 -9.67003e-06)
(1.09059e-09 8.49331e-08 -9.67001e-06)
(8.46997e-10 8.49926e-08 -9.66981e-06)
(4.29367e-10 8.45437e-08 -9.67015e-06)
(5.14038e-10 8.51239e-08 -9.67033e-06)
(5.1974e-10 8.5133e-08 -9.66979e-06)
(-2.6391e-11 8.49593e-08 -9.66988e-06)
(1.45275e-11 8.44182e-08 -9.67035e-06)
(1.18485e-10 8.48924e-08 -9.66968e-06)
(-2.96671e-10 8.50101e-08 -9.66966e-06)
(-3.80479e-10 8.58157e-08 -9.67014e-06)
(-4.4646e-10 8.55473e-08 -9.66991e-06)
(-6.61916e-10 8.47131e-08 -9.67031e-06)
(-7.88294e-10 8.6153e-08 -9.67002e-06)
(-9.60285e-10 8.40975e-08 -9.67008e-06)
(-1.30095e-09 8.49832e-08 -9.66988e-06)
(-1.7275e-09 8.49062e-08 -9.66994e-06)
(-2.46379e-09 8.51075e-08 -9.66979e-06)
(-6.46499e-09 8.40849e-08 -9.669e-06)
(-3.43979e-08 8.52287e-08 -9.66755e-06)
(-2.22326e-07 7.93897e-08 -9.74263e-06)
(-1.52054e-06 6.67986e-08 -1.03508e-05)
(-1.32072e-05 6.89913e-08 -6.21367e-06)
(1.32152e-05 3.56522e-08 -6.21166e-06)
(1.5227e-06 3.49891e-08 -1.0351e-05)
(2.23496e-07 4.16994e-08 -9.74192e-06)
(3.43489e-08 4.42397e-08 -9.66626e-06)
(6.07606e-09 4.38445e-08 -9.66922e-06)
(2.6236e-09 4.38784e-08 -9.66971e-06)
(1.82299e-09 4.47022e-08 -9.66956e-06)
(1.33893e-09 4.46923e-08 -9.6696e-06)
(1.07088e-09 4.476e-08 -9.66958e-06)
(7.79642e-10 4.46973e-08 -9.66951e-06)
(5.60534e-10 4.39341e-08 -9.66968e-06)
(5.8631e-10 4.56189e-08 -9.66961e-06)
(4.07705e-10 4.4903e-08 -9.66931e-06)
(-1.49845e-10 4.47909e-08 -9.66944e-06)
(-1.65806e-11 4.47518e-08 -9.67012e-06)
(2.23209e-10 4.44979e-08 -9.66948e-06)
(-2.10235e-10 4.47716e-08 -9.66932e-06)
(-3.27334e-10 4.51716e-08 -9.66973e-06)
(-5.70498e-10 4.50467e-08 -9.66925e-06)
(-6.2345e-10 4.50671e-08 -9.67e-06)
(-8.2843e-10 4.53453e-08 -9.66949e-06)
(-1.02742e-09 4.46157e-08 -9.67005e-06)
(-1.19916e-09 4.47597e-08 -9.66933e-06)
(-1.71875e-09 4.45758e-08 -9.6696e-06)
(-2.57795e-09 4.48282e-08 -9.66935e-06)
(-6.38385e-09 4.46119e-08 -9.66891e-06)
(-3.4451e-08 4.55711e-08 -9.66678e-06)
(-2.2352e-07 4.25599e-08 -9.74203e-06)
(-1.52252e-06 3.47672e-08 -1.0351e-05)
(-1.32152e-05 3.62178e-08 -6.21129e-06)
(1.32186e-05 1.139e-08 -6.21058e-06)
(1.52369e-06 1.08476e-08 -1.0351e-05)
(2.23955e-07 1.29428e-08 -9.74177e-06)
(3.43247e-08 1.36308e-08 -9.6662e-06)
(6.00953e-09 1.32346e-08 -9.66916e-06)
(2.7764e-09 1.3893e-08 -9.66984e-06)
(1.93908e-09 1.3876e-08 -9.66938e-06)
(1.34016e-09 1.38966e-08 -9.66941e-06)
(1.05767e-09 1.39303e-08 -9.66939e-06)
(6.55894e-10 1.39062e-08 -9.6694e-06)
(6.13345e-10 1.39198e-08 -9.66981e-06)
(7.10881e-10 1.41815e-08 -9.66954e-06)
(3.6963e-10 1.38928e-08 -9.66902e-06)
(-6.96748e-11 1.39711e-08 -9.66925e-06)
(-5.6994e-11 1.4461e-08 -9.66977e-06)
(1.34531e-10 1.35018e-08 -9.66959e-06)
(-1.49367e-10 1.38951e-08 -9.66908e-06)
(-3.12664e-10 1.40447e-08 -9.66933e-06)
(-4.67747e-10 1.40133e-08 -9.66917e-06)
(-6.06121e-10 1.49079e-08 -9.66944e-06)
(-8.59547e-10 1.41495e-08 -9.66924e-06)
(-1.05519e-09 1.43952e-08 -9.66977e-06)
(-1.29101e-09 1.38754e-08 -9.66927e-06)
(-1.69625e-09 1.3526e-08 -9.6696e-06)
(-2.47031e-09 1.39395e-08 -9.66915e-06)
(-6.35654e-09 1.43997e-08 -9.66855e-06)
(-3.46247e-08 1.41652e-08 -9.6665e-06)
(-2.24137e-07 1.33924e-08 -9.74192e-06)
(-1.52341e-06 1.03192e-08 -1.03513e-05)
(-1.32187e-05 1.12451e-08 -6.21029e-06)
(1.32189e-05 -1.03627e-08 -6.21039e-06)
(1.52351e-06 -1.08966e-08 -1.0351e-05)
(2.23934e-07 -1.30518e-08 -9.74175e-06)
(3.43452e-08 -1.3982e-08 -9.66627e-06)
(6.15195e-09 -1.31146e-08 -9.66908e-06)
(2.75136e-09 -1.31428e-08 -9.66953e-06)
(1.82831e-09 -1.40351e-08 -9.66938e-06)
(1.34362e-09 -1.39982e-08 -9.6694e-06)
(1.0578e-09 -1.39795e-08 -9.66939e-06)
(7.58404e-10 -1.39659e-08 -9.66941e-06)
(6.00582e-10 -1.31844e-08 -9.66952e-06)
(5.76018e-10 -1.42216e-08 -9.66957e-06)
(3.77706e-10 -1.4261e-08 -9.66923e-06)
(-3.60721e-11 -1.39455e-08 -9.66925e-06)
(-1.12843e-10 -1.43319e-08 -9.66976e-06)
(1.0817e-10 -1.4784e-08 -9.66957e-06)
(-9.36092e-11 -1.40945e-08 -9.66922e-06)
(-2.76696e-10 -1.41234e-08 -9.66933e-06)
(-4.1034e-10 -1.39206e-08 -9.66919e-06)
(-6.08536e-10 -1.35328e-08 -9.66949e-06)
(-9.10697e-10 -1.39265e-08 -9.66924e-06)
(-1.06573e-09 -1.43893e-08 -9.66977e-06)
(-1.33096e-09 -1.40015e-08 -9.66933e-06)
(-1.69182e-09 -1.48054e-08 -9.66956e-06)
(-2.4147e-09 -1.4041e-08 -9.66915e-06)
(-6.37411e-09 -1.4498e-08 -9.66843e-06)
(-3.46219e-08 -1.41464e-08 -9.6665e-06)
(-2.24332e-07 -1.27681e-08 -9.7417e-06)
(-1.52349e-06 -1.19865e-08 -1.03511e-05)
(-1.32184e-05 -1.12892e-08 -6.21032e-06)
(1.32155e-05 -3.61768e-08 -6.2118e-06)
(1.52259e-06 -3.50754e-08 -1.0351e-05)
(2.23443e-07 -4.18704e-08 -9.74192e-06)
(3.44139e-08 -4.47643e-08 -9.66653e-06)
(6.22519e-09 -4.38538e-08 -9.66895e-06)
(2.56644e-09 -4.43857e-08 -9.66976e-06)
(1.76891e-09 -4.4859e-08 -9.66959e-06)
(1.35324e-09 -4.48121e-08 -9.66958e-06)
(1.07517e-09 -4.47747e-08 -9.66959e-06)
(8.07397e-10 -4.47435e-08 -9.66955e-06)
(5.25786e-10 -4.44536e-08 -9.66976e-06)
(4.83167e-10 -4.56316e-08 -9.66968e-06)
(4.35521e-10 -4.5307e-08 -9.6697e-06)
(-6.81024e-11 -4.47336e-08 -9.66939e-06)
(-2.1024e-10 -4.45081e-08 -9.67004e-06)
(1.65465e-10 -4.46676e-08 -9.66997e-06)
(-2.41289e-11 -4.48923e-08 -9.66947e-06)
(-2.39529e-10 -4.52659e-08 -9.66973e-06)
(-3.61927e-10 -4.48427e-08 -9.66921e-06)
(-6.27844e-10 -4.46197e-08 -9.66951e-06)
(-1.01546e-09 -4.48768e-08 -9.66943e-06)
(-1.06564e-09 -4.46002e-08 -9.67006e-06)
(-1.35066e-09 -4.4767e-08 -9.66954e-06)
(-1.70406e-09 -4.47645e-08 -9.67006e-06)
(-2.41124e-09 -4.48609e-08 -9.66938e-06)
(-6.38385e-09 -4.48257e-08 -9.66889e-06)
(-3.43958e-08 -4.54776e-08 -9.66672e-06)
(-2.24106e-07 -4.15221e-08 -9.74172e-06)
(-1.52275e-06 -3.49993e-08 -1.03511e-05)
(-1.32144e-05 -3.62287e-08 -6.21139e-06)
(1.32074e-05 -6.981e-08 -6.21389e-06)
(1.52073e-06 -6.69694e-08 -1.03509e-05)
(2.22366e-07 -7.96877e-08 -9.7424e-06)
(3.41296e-08 -8.50964e-08 -9.66708e-06)
(6.26472e-09 -8.52801e-08 -9.66918e-06)
(2.52512e-09 -8.48021e-08 -9.67e-06)
(1.74266e-09 -8.50217e-08 -9.67004e-06)
(1.36573e-09 -8.49636e-08 -9.67003e-06)
(1.11505e-09 -8.49152e-08 -9.67002e-06)
(8.32702e-10 -8.4949e-08 -9.66978e-06)
(3.66334e-10 -8.48296e-08 -9.67001e-06)
(3.904e-10 -8.50637e-08 -9.6704e-06)
(5.65236e-10 -8.58878e-08 -9.67013e-06)
(1.36616e-10 -8.49802e-08 -9.66969e-06)
(-7.25787e-11 -8.3943e-08 -9.67007e-06)
(1.72595e-11 -8.40427e-08 -9.66982e-06)
(-2.3153e-10 -8.50853e-08 -9.6699e-06)
(-2.30307e-10 -8.59203e-08 -9.67015e-06)
(-2.89034e-10 -8.52027e-08 -9.66964e-06)
(-6.31949e-10 -8.49246e-08 -9.66987e-06)
(-9.00074e-10 -8.52249e-08 -9.66986e-06)
(-1.04574e-09 -8.40837e-08 -9.67007e-06)
(-1.35873e-09 -8.48939e-08 -9.66996e-06)
(-1.71196e-09 -8.40795e-08 -9.67016e-06)
(-2.42217e-09 -8.50077e-08 -9.66984e-06)
(-6.44227e-09 -8.42515e-08 -9.66903e-06)
(-3.42225e-08 -8.51655e-08 -9.66731e-06)
(-2.22719e-07 -7.92962e-08 -9.74187e-06)
(-1.52086e-06 -6.57708e-08 -1.03509e-05)
(-1.32066e-05 -6.89759e-08 -6.21372e-06)
(1.31926e-05 -1.16738e-07 -6.21829e-06)
(1.51743e-06 -1.13616e-07 -1.03508e-05)
(2.20554e-07 -1.34674e-07 -9.74332e-06)
(3.35607e-08 -1.41743e-07 -9.66819e-06)
(6.2785e-09 -1.42718e-07 -9.67019e-06)
(2.61345e-09 -1.42914e-07 -9.67069e-06)
(1.74547e-09 -1.42978e-07 -9.67084e-06)
(1.38169e-09 -1.42877e-07 -9.67082e-06)
(1.14947e-09 -1.42843e-07 -9.67077e-06)
(8.39155e-10 -1.42987e-07 -9.67042e-06)
(4.24958e-10 -1.42902e-07 -9.6707e-06)
(2.57482e-10 -1.42273e-07 -9.67086e-06)
(4.54539e-10 -1.42975e-07 -9.67115e-06)
(3.15736e-10 -1.42995e-07 -9.67057e-06)
(9.35974e-12 -1.42424e-07 -9.6709e-06)
(-5.77114e-11 -1.42618e-07 -9.6706e-06)
(-4.1013e-10 -1.43129e-07 -9.67068e-06)
(-2.43396e-10 -1.4302e-07 -9.6712e-06)
(-1.61783e-10 -1.43189e-07 -9.67062e-06)
(-6.27361e-10 -1.42952e-07 -9.67065e-06)
(-8.51037e-10 -1.43501e-07 -9.67075e-06)
(-1.01159e-09 -1.42629e-07 -9.67085e-06)
(-1.35648e-09 -1.42853e-07 -9.67072e-06)
(-1.72567e-09 -1.42456e-07 -9.67097e-06)
(-2.44028e-09 -1.42992e-07 -9.67062e-06)
(-6.3605e-09 -1.42712e-07 -9.66991e-06)
(-3.37192e-08 -1.41415e-07 -9.6684e-06)
(-2.20736e-07 -1.34127e-07 -9.7427e-06)
(-1.51741e-06 -1.13004e-07 -1.0351e-05)
(-1.31928e-05 -1.16779e-07 -6.21798e-06)
(1.31675e-05 -1.89048e-07 -6.22542e-06)
(1.51135e-06 -1.85561e-07 -1.03503e-05)
(2.18046e-07 -2.1884e-07 -9.7443e-06)
(3.29713e-08 -2.28391e-07 -9.66913e-06)
(6.01703e-09 -2.29948e-07 -9.67112e-06)
(2.49975e-09 -2.31065e-07 -9.67189e-06)
(1.77124e-09 -2.30979e-07 -9.67208e-06)
(1.40133e-09 -2.30812e-07 -9.67205e-06)
(1.17431e-09 -2.30798e-07 -9.67197e-06)
(8.28746e-10 -2.30992e-07 -9.67156e-06)
(4.23133e-10 -2.31003e-07 -9.67189e-06)
(3.52767e-10 -2.30847e-07 -9.67216e-06)
(4.09266e-10 -2.30171e-07 -9.67204e-06)
(2.39083e-10 -2.3095e-07 -9.67187e-06)
(2.94716e-11 -2.3066e-07 -9.67198e-06)
(-1.01446e-10 -2.30855e-07 -9.67186e-06)
(-3.02613e-10 -2.31294e-07 -9.67201e-06)
(-2.39292e-10 -2.30136e-07 -9.67212e-06)
(-2.62796e-10 -2.31096e-07 -9.67197e-06)
(-6.59382e-10 -2.30975e-07 -9.67188e-06)
(-8.41965e-10 -2.32043e-07 -9.67232e-06)
(-9.53493e-10 -2.31037e-07 -9.67188e-06)
(-1.34026e-09 -2.30841e-07 -9.67194e-06)
(-1.74621e-09 -2.30619e-07 -9.67201e-06)
(-2.46753e-09 -2.31058e-07 -9.67183e-06)
(-6.1198e-09 -2.31072e-07 -9.67109e-06)
(-3.29488e-08 -2.28974e-07 -9.66935e-06)
(-2.18049e-07 -2.1781e-07 -9.74385e-06)
(-1.51153e-06 -1.85223e-07 -1.03505e-05)
(-1.3168e-05 -1.90192e-07 -6.22533e-06)
(1.31241e-05 -3.04346e-07 -6.23766e-06)
(1.50143e-06 -2.99605e-07 -1.0349e-05)
(2.14236e-07 -3.4897e-07 -9.74582e-06)
(3.20872e-08 -3.65031e-07 -9.67094e-06)
(5.79006e-09 -3.67224e-07 -9.67296e-06)
(2.46608e-09 -3.68041e-07 -9.67364e-06)
(1.82344e-09 -3.67669e-07 -9.6738e-06)
(1.42004e-09 -3.67469e-07 -9.67374e-06)
(1.18695e-09 -3.67482e-07 -9.67364e-06)
(8.03546e-10 -3.67675e-07 -9.67319e-06)
(3.93858e-10 -3.67867e-07 -9.67363e-06)
(3.88607e-10 -3.68018e-07 -9.67376e-06)
(3.97017e-10 -3.67444e-07 -9.67385e-06)
(2.17726e-10 -3.67691e-07 -9.67359e-06)
(4.12597e-11 -3.67456e-07 -9.67364e-06)
(-1.47907e-10 -3.67571e-07 -9.67364e-06)
(-2.43603e-10 -3.68361e-07 -9.67398e-06)
(-2.05455e-10 -3.67276e-07 -9.67391e-06)
(-3.07117e-10 -3.6774e-07 -9.67374e-06)
(-7.48575e-10 -3.67702e-07 -9.67358e-06)
(-8.65486e-10 -3.69689e-07 -9.67424e-06)
(-8.50741e-10 -3.6817e-07 -9.67356e-06)
(-1.30474e-09 -3.67533e-07 -9.67366e-06)
(-1.77847e-09 -3.67388e-07 -9.67364e-06)
(-2.51222e-09 -3.67942e-07 -9.67355e-06)
(-5.98528e-09 -3.68221e-07 -9.67301e-06)
(-3.19194e-08 -3.65149e-07 -9.67108e-06)
(-2.14048e-07 -3.48838e-07 -9.74527e-06)
(-1.50176e-06 -2.99205e-07 -1.03494e-05)
(-1.31245e-05 -3.05148e-07 -6.23742e-06)
(1.30499e-05 -4.85848e-07 -6.25687e-06)
(1.48573e-06 -4.82163e-07 -1.03468e-05)
(2.08719e-07 -5.55269e-07 -9.74693e-06)
(3.05789e-08 -5.79367e-07 -9.67283e-06)
(5.54522e-09 -5.8222e-07 -9.67487e-06)
(2.48509e-09 -5.83094e-07 -9.67586e-06)
(1.91055e-09 -5.82196e-07 -9.67576e-06)
(1.42485e-09 -5.82035e-07 -9.67578e-06)
(1.17858e-09 -5.82115e-07 -9.67566e-06)
(7.6109e-10 -5.82275e-07 -9.6753e-06)
(3.58737e-10 -5.82744e-07 -9.67586e-06)
(4.07014e-10 -5.83155e-07 -9.67599e-06)
(3.95976e-10 -5.8244e-07 -9.67579e-06)
(2.23153e-10 -5.82427e-07 -9.67565e-06)
(6.8945e-11 -5.82084e-07 -9.6757e-06)
(-2.22169e-10 -5.82129e-07 -9.67571e-06)
(-2.13135e-10 -5.83581e-07 -9.67596e-06)
(-1.22873e-10 -5.82081e-07 -9.6758e-06)
(-3.30154e-10 -5.82286e-07 -9.67584e-06)
(-9.28918e-10 -5.82316e-07 -9.67563e-06)
(-9.1243e-10 -5.84081e-07 -9.6764e-06)
(-6.70932e-10 -5.83318e-07 -9.67583e-06)
(-1.25207e-09 -5.8211e-07 -9.67573e-06)
(-1.83057e-09 -5.82011e-07 -9.67568e-06)
(-2.5807e-09 -5.82904e-07 -9.67576e-06)
(-5.67436e-09 -5.83471e-07 -9.67498e-06)
(-3.04344e-08 -5.78977e-07 -9.67303e-06)
(-2.08586e-07 -5.56031e-07 -9.74682e-06)
(-1.48598e-06 -4.81671e-07 -1.03469e-05)
(-1.305e-05 -4.86663e-07 -6.25702e-06)
(1.29253e-05 -7.73078e-07 -6.28836e-06)
(1.46132e-06 -7.76262e-07 -1.03425e-05)
(2.01108e-07 -8.84894e-07 -9.74893e-06)
(2.86871e-08 -9.17584e-07 -9.67571e-06)
(5.26779e-09 -9.2105e-07 -9.6777e-06)
(2.55053e-09 -9.22295e-07 -9.67914e-06)
(2.03457e-09 -9.20655e-07 -9.67844e-06)
(1.41479e-09 -9.20444e-07 -9.67862e-06)
(1.14136e-09 -9.20653e-07 -9.67858e-06)
(6.9573e-10 -9.20583e-07 -9.67849e-06)
(3.33985e-10 -9.21617e-07 -9.6791e-06)
(4.22334e-10 -9.22334e-07 -9.67937e-06)
(3.86757e-10 -9.21309e-07 -9.67879e-06)
(2.42933e-10 -9.21107e-07 -9.67855e-06)
(1.21978e-10 -9.20537e-07 -9.67856e-06)
(-3.4784e-10 -9.20491e-07 -9.67856e-06)
(-1.98034e-10 -9.21155e-07 -9.6789e-06)
(3.88517e-11 -9.20582e-07 -9.67862e-06)
(-3.39838e-10 -9.20625e-07 -9.67872e-06)
(-9.52623e-10 -9.20743e-07 -9.6785e-06)
(-9.69861e-10 -9.20934e-07 -9.67917e-06)
(-6.66014e-10 -9.22588e-07 -9.67928e-06)
(-1.18993e-09 -9.20508e-07 -9.67859e-06)
(-1.90645e-09 -9.20449e-07 -9.67855e-06)
(-2.70108e-09 -9.21948e-07 -9.67904e-06)
(-5.43699e-09 -9.21063e-07 -9.67785e-06)
(-2.84984e-08 -9.17925e-07 -9.67595e-06)
(-2.00934e-07 -8.84962e-07 -9.74889e-06)
(-1.46152e-06 -7.75766e-07 -1.03424e-05)
(-1.2925e-05 -7.74193e-07 -6.28893e-06)
(1.27242e-05 -1.22829e-06 -6.34383e-06)
(1.42559e-06 -1.25135e-06 -1.03402e-05)
(1.90816e-07 -1.40762e-06 -9.75732e-06)
(2.63207e-08 -1.45185e-06 -9.68531e-06)
(4.95478e-09 -1.45582e-06 -9.68709e-06)
(2.62942e-09 -1.45778e-06 -9.68863e-06)
(2.17756e-09 -1.45487e-06 -9.68801e-06)
(1.44186e-09 -1.45473e-06 -9.68801e-06)
(1.11729e-09 -1.45518e-06 -9.68823e-06)
(5.94232e-10 -1.4546e-06 -9.68799e-06)
(2.77839e-10 -1.4565e-06 -9.68826e-06)
(4.42722e-10 -1.45768e-06 -9.68873e-06)
(3.67459e-10 -1.45623e-06 -9.68853e-06)
(2.67004e-10 -1.4558e-06 -9.68808e-06)
(1.95478e-10 -1.45489e-06 -9.68789e-06)
(-2.40217e-10 -1.45475e-06 -9.68788e-06)
(-1.77263e-10 -1.45481e-06 -9.68815e-06)
(1.27853e-11 -1.45486e-06 -9.68797e-06)
(-3.40903e-10 -1.45471e-06 -9.68784e-06)
(-8.40186e-10 -1.45506e-06 -9.68789e-06)
(-1.04268e-09 -1.45547e-06 -9.68875e-06)
(-8.33403e-10 -1.45823e-06 -9.68891e-06)
(-1.11551e-09 -1.45475e-06 -9.68792e-06)
(-2.00055e-09 -1.45474e-06 -9.68793e-06)
(-2.62339e-09 -1.45718e-06 -9.68849e-06)
(-5.22488e-09 -1.45467e-06 -9.68675e-06)
(-2.62809e-08 -1.45072e-06 -9.68515e-06)
(-1.906e-07 -1.40727e-06 -9.75703e-06)
(-1.42584e-06 -1.25077e-06 -1.03399e-05)
(-1.27234e-05 -1.22986e-06 -6.34397e-06)
(1.24199e-05 -1.9491e-06 -6.45415e-06)
(1.37754e-06 -2.01606e-06 -1.03624e-05)
(1.77423e-07 -2.23437e-06 -9.79662e-06)
(2.33564e-08 -2.29375e-06 -9.72663e-06)
(4.61912e-09 -2.2979e-06 -9.72814e-06)
(2.77458e-09 -2.29871e-06 -9.73012e-06)
(2.38877e-09 -2.296e-06 -9.72907e-06)
(1.48829e-09 -2.29621e-06 -9.7292e-06)
(1.10756e-09 -2.29712e-06 -9.72991e-06)
(3.89632e-10 -2.29567e-06 -9.72877e-06)
(1.24959e-10 -2.29643e-06 -9.72899e-06)
(4.94684e-10 -2.29834e-06 -9.72877e-06)
(3.95131e-10 -2.29849e-06 -9.72919e-06)
(2.95603e-10 -2.29793e-06 -9.72954e-06)
(2.67518e-10 -2.2965e-06 -9.72891e-06)
(-1.60844e-10 -2.29626e-06 -9.72888e-06)