/*--------------------------------*- C++ -*----------------------------------*\
| =========                 |                                                 |
| \\      /  F ield         | OpenFOAM: The Open Source CFD Toolbox           |
|  \\    /   O peration     | Version:  2106                                  |
|   \\  /    A nd           | Website:  www.openfoam.com                      |
|    \\/     M anipulation  |                                                 |
\*---------------------------------------------------------------------------*/
FoamFile
{
    version     2.0;
    format      ascii;
    arch        "LSB;label=32;scalar=64";
    class       volSymmTensorField;
    location    "921";
    object      epsilon;
}
// * * * * * * * * * * * * * * * * * * * * * * * * * * * * * * * * * * * * * //

dimensions      [0 0 0 0 0 0 0];

internalField   nonuniform List<symmTensor> 
9000
(
(-0.0855804 -0.000263483 0.0481617 -0.147115 0.0614066 -0.0253748)
(-0.0167732 0.000537837 0.00938362 -0.156475 0.0651284 -0.0697521)
(-0.00192933 0.000335758 0.00256543 -0.166386 0.0691564 -0.0595165)
(-0.000321093 5.06358e-05 0.000451267 -0.167998 0.0700452 -0.0573944)
(-5.53377e-05 -7.94893e-06 3.93608e-05 -0.168079 0.0700718 -0.0574068)
(-3.86425e-06 -2.05951e-06 1.73069e-05 -0.167897 0.0698601 -0.0576812)
(-1.28716e-06 -3.735e-08 2.5273e-05 -0.168021 0.0700234 -0.0575668)
(7.10254e-08 -5.91746e-06 7.60393e-06 -0.167889 0.0698611 -0.0576818)
(-9.11149e-07 6.4498e-06 3.11994e-05 -0.167887 0.0698578 -0.0576892)
(-6.5484e-06 6.62787e-06 -7.50733e-06 -0.168061 0.0700452 -0.057471)
(2.42956e-06 -6.26679e-06 -4.90729e-05 -0.167943 0.0699279 -0.0575981)
(7.86208e-06 -5.39865e-07 3.97342e-05 -0.167761 0.0697374 -0.0578377)
(-4.59172e-06 5.45211e-06 5.89399e-05 -0.16805 0.0700333 -0.0574993)
(-4.35854e-06 8.28913e-07 -3.01817e-05 -0.168067 0.0700421 -0.0574879)
(3.42405e-06 8.63002e-07 1.85836e-06 -0.167955 0.0699368 -0.0575821)
(-2.63358e-06 -1.1862e-06 3.04766e-05 -0.168064 0.0700469 -0.057473)
(-2.17118e-06 3.3934e-07 -3.63221e-05 -0.168066 0.0700412 -0.0574927)
(2.55184e-09 7.56574e-07 -3.13178e-06 -0.167958 0.069939 -0.0575732)
(-2.16557e-06 -6.66468e-06 -2.48146e-05 -0.168053 0.0700387 -0.0574873)
(4.66076e-06 -6.37386e-06 -2.66437e-05 -0.167773 0.0697468 -0.0578017)
(2.77295e-06 5.82143e-06 3.9768e-05 -0.167874 0.069851 -0.0577146)
(-5.67649e-06 6.53987e-06 6.88444e-06 -0.16806 0.070039 -0.0574852)
(-3.46822e-06 -5.87801e-06 -3.18929e-05 -0.168065 0.070048 -0.0574673)
(1.25864e-07 -8.09473e-07 -2.63264e-05 -0.167901 0.0698655 -0.0576678)
(-7.73819e-06 1.65928e-06 -2.3902e-05 -0.168053 0.0700336 -0.057494)
(-5.38708e-05 1.93972e-06 -9.28352e-05 -0.167913 0.0698908 -0.0576038)
(-0.000314524 -4.56895e-05 -0.000439616 -0.167868 0.0699203 -0.0575373)
(-0.00192992 -0.000335535 -0.00252768 -0.166381 0.0691448 -0.0595432)
(-0.016776 -0.00053689 -0.00938193 -0.156473 0.0651273 -0.0697537)
(-0.0855797 0.000263411 -0.0481627 -0.147115 0.0614022 -0.0253803)
(-0.0724033 -1.12526e-05 0.0464784 -0.0980712 0.0681821 -0.128992)
(-0.0163972 0.000682547 0.00802443 -0.103197 0.0717479 -0.175005)
(-0.00180222 0.000432684 0.00154205 -0.109234 0.0762341 -0.17132)
(-0.000206434 7.09676e-05 0.000229078 -0.1104 0.077392 -0.170637)
(-2.73444e-05 -6.3215e-06 3.19238e-05 -0.110423 0.077425 -0.170683)
(-4.44671e-06 -3.26704e-06 3.09747e-05 -0.110203 0.0773582 -0.170699)
(-2.05155e-06 5.05943e-07 2.5597e-05 -0.11037 0.0773693 -0.17071)
(-1.45274e-06 -1.71463e-06 -2.79928e-06 -0.110179 0.0773628 -0.170696)
(-7.37016e-07 2.06254e-06 3.41477e-05 -0.11018 0.0773558 -0.170702)
(-1.19202e-06 7.22181e-06 3.38095e-05 -0.110394 0.0773821 -0.170707)
(-4.55716e-07 3.32178e-06 -1.14646e-05 -0.110296 0.077557 -0.170677)
(8.48851e-08 -5.8859e-06 4.35276e-06 -0.110076 0.0775215 -0.170667)
(-1.08608e-06 -6.98648e-06 2.37839e-05 -0.110393 0.0773645 -0.17071)
(-7.99951e-07 6.30939e-06 1.80286e-06 -0.11037 0.0772293 -0.170691)
(1.18659e-07 3.75271e-06 -1.46503e-06 -0.110309 0.0775704 -0.17068)
(-3.79707e-07 -9.01432e-06 -2.07187e-06 -0.110397 0.0773865 -0.17071)
(-2.43944e-07 5.1656e-06 -8.37861e-07 -0.110368 0.0772283 -0.170693)
(-1.77658e-07 3.80484e-06 -3.49623e-06 -0.110313 0.0775717 -0.170675)
(-7.61757e-07 -2.15015e-06 -2.46605e-05 -0.110384 0.0773724 -0.17071)
(-7.81933e-07 -1.92198e-06 -2.79304e-05 -0.110083 0.0775421 -0.170665)
(-7.79902e-07 -4.15458e-06 4.75106e-06 -0.110164 0.0773434 -0.170691)
(-9.29737e-07 1.92468e-06 5.04424e-06 -0.110405 0.0773721 -0.170713)
(-1.08854e-06 -1.08356e-06 -3.74856e-05 -0.110397 0.0773872 -0.170708)
(-1.53368e-06 -1.73795e-06 -2.27108e-05 -0.110196 0.0773657 -0.170693)
(-5.13693e-06 3.42155e-06 -2.87252e-05 -0.110398 0.0773624 -0.17071)
(-2.77039e-05 9.92967e-06 -5.04537e-05 -0.110214 0.0774081 -0.170668)
(-0.000206189 -7.34629e-05 -0.000208712 -0.110289 0.077555 -0.170606)
(-0.00180236 -0.000437657 -0.001544 -0.109198 0.0760739 -0.171319)
(-0.0163972 -0.000679207 -0.00802702 -0.103195 0.0717458 -0.175003)
(-0.0724021 1.1226e-05 -0.0464789 -0.0980748 0.0681719 -0.128992)
(-0.0763045 0.00117273 0.0467452 -0.0575535 0.0581643 -0.153406)
(-0.0165231 0.000871469 0.00786419 -0.0602169 0.0606466 -0.201966)
(-0.00180447 0.000519536 0.00136739 -0.0633661 0.0647173 -0.199928)
(-0.000186593 9.82327e-05 0.000168806 -0.0641023 0.0658944 -0.199627)
(-1.85147e-05 -8.8138e-07 5.56418e-05 -0.0641043 0.0659376 -0.199687)
(-4.64417e-06 -5.15975e-06 3.4404e-05 -0.0639985 0.0660471 -0.199647)
(-1.97831e-06 2.17879e-06 2.4726e-05 -0.0640744 0.0658763 -0.199696)
(-2.25679e-06 4.47985e-06 2.19107e-05 -0.063992 0.0661445 -0.199667)
(-1.4872e-06 -2.86204e-06 7.86855e-06 -0.0640004 0.0661371 -0.199671)
(1.19132e-06 -2.78292e-06 9.2889e-06 -0.0640767 0.0658973 -0.199701)
(-7.5011e-07 3.21677e-06 1.85084e-05 -0.0640651 0.065872 -0.199687)
(-3.43076e-06 -2.70084e-06 4.76791e-06 -0.0639771 0.0661184 -0.199649)
(-3.4388e-07 -3.4413e-06 -1.99212e-05 -0.0640561 0.0657869 -0.199657)
(1.35965e-06 3.84718e-06 5.94245e-07 -0.064008 0.0659 -0.199683)
(-9.45376e-07 5.22853e-07 1.20701e-05 -0.06407 0.0658881 -0.199691)
(-1.2532e-07 -1.06502e-06 -1.70307e-05 -0.0640784 0.0659032 -0.199703)
(1.04022e-06 4.63465e-07 1.61679e-07 -0.0640076 0.0658988 -0.199686)
(2.97143e-07 2.84205e-07 1.15169e-05 -0.0640722 0.0658876 -0.199691)
(-4.15355e-07 2.3339e-06 2.78293e-06 -0.0640704 0.0658874 -0.1997)
(-3.1082e-06 2.80432e-06 -9.15781e-07 -0.0639811 0.0661236 -0.199653)
(-2.72068e-06 -5.5172e-06 -2.13987e-05 -0.0639824 0.0661383 -0.199657)
(1.09401e-06 -2.54112e-06 -2.32796e-05 -0.0640675 0.0657963 -0.199683)
(1.45495e-07 5.10273e-06 -1.28428e-05 -0.0640769 0.0659044 -0.199702)
(-2.33826e-06 -3.96874e-06 -2.08e-05 -0.0640112 0.0661443 -0.199667)
(-3.98738e-06 4.04416e-06 -2.95068e-05 -0.0640718 0.0657865 -0.199676)
(-2.02015e-05 4.63226e-06 -4.56219e-05 -0.064024 0.0661855 -0.199649)
(-0.000188773 -0.000102368 -0.000188263 -0.0640793 0.065857 -0.199609)
(-0.00180353 -0.000519265 -0.00137421 -0.063293 0.0646977 -0.199916)
(-0.0165219 -0.000872004 -0.00785366 -0.0602148 0.0606447 -0.201963)
(-0.0763017 -0.00117252 -0.0467449 -0.0575627 0.0581515 -0.153408)
(-0.0818775 0.00181544 0.0483679 -0.0351662 0.0409082 -0.154296)
(-0.0170823 0.00088028 0.00813684 -0.0372327 0.0422663 -0.205378)
(-0.00186638 0.000494973 0.00148707 -0.0391078 0.0456081 -0.203493)
(-0.000206488 0.000100465 0.000189395 -0.0396308 0.0464867 -0.203202)
(-2.02881e-05 -7.62672e-07 4.08168e-05 -0.0396401 0.0465332 -0.203268)
(-3.76649e-06 -6.75925e-06 3.49542e-05 -0.0395809 0.0464298 -0.203236)
(-2.10695e-06 1.26319e-06 3.31955e-05 -0.0396051 0.0464174 -0.203264)
(-2.11765e-06 1.53685e-06 1.88826e-05 -0.0396222 0.0465017 -0.203286)
(-1.06608e-06 4.94144e-07 1.24327e-05 -0.0396165 0.0464281 -0.203248)
(7.50191e-07 3.28901e-07 1.16833e-05 -0.0396145 0.0465012 -0.20328)
(-1.26845e-06 -1.99353e-06 1.47415e-05 -0.0396095 0.0464877 -0.203277)
(-2.99593e-06 7.50865e-07 -4.50986e-06 -0.039614 0.0464789 -0.203254)
(2.26002e-07 5.94679e-06 -3.54127e-06 -0.0395689 0.0465019 -0.20326)
(9.06379e-07 1.03633e-06 1.04569e-05 -0.0395899 0.0466667 -0.203286)
(-1.09184e-06 -3.47585e-06 -7.46442e-07 -0.0396074 0.0465019 -0.203279)
(5.05101e-08 4.10226e-06 -3.82969e-06 -0.0396158 0.0465075 -0.203284)
(8.42119e-07 -6.05936e-07 -2.58589e-07 -0.0395907 0.0466654 -0.203289)
(8.06516e-09 -4.23273e-06 -3.15556e-07 -0.0396076 0.0465016 -0.20328)
(-6.85439e-07 -1.56641e-06 -1.4769e-06 -0.0396114 0.046492 -0.203258)
(-2.75614e-06 -7.48796e-07 -5.73803e-06 -0.0396158 0.0464898 -0.20328)
(-2.21668e-06 1.12217e-06 -2.62751e-05 -0.0396177 0.0464914 -0.203261)
(9.55112e-07 1.58293e-06 -1.97302e-05 -0.0395798 0.0464961 -0.203252)
(-3.04722e-07 -1.25296e-06 -6.71785e-06 -0.0396122 0.0465102 -0.203284)
(-2.21831e-06 -3.836e-06 -3.01847e-05 -0.0396215 0.0464323 -0.20327)
(-3.1081e-06 4.86012e-06 -2.99718e-05 -0.0395743 0.0464201 -0.203228)
(-2.15027e-05 1.90203e-07 -3.44432e-05 -0.0396476 0.0465318 -0.203264)
(-0.000208597 -9.7704e-05 -0.000191019 -0.0396171 0.0464611 -0.203192)
(-0.00186624 -0.000492527 -0.00149463 -0.0390838 0.0457505 -0.203466)
(-0.0170804 -0.000885629 -0.0081405 -0.0372312 0.0422648 -0.205375)
(-0.0818818 -0.00181475 -0.048366 -0.0351567 0.0408314 -0.154282)
(-0.086058 0.00177845 0.0503683 -0.0220578 0.0263835 -0.152289)
(-0.017767 0.000770772 0.00855069 -0.023578 0.0267734 -0.205729)
(-0.00194989 0.000412507 0.00165833 -0.0249318 0.0293915 -0.203766)
(-0.000234357 8.63243e-05 0.000209809 -0.025287 0.0299606 -0.203434)
(-2.56097e-05 5.396e-06 3.98843e-05 -0.025288 0.0299507 -0.203494)
(-3.45024e-06 -4.73196e-06 2.35314e-05 -0.0252439 0.030095 -0.203526)
(-1.73828e-06 -2.84087e-06 3.20657e-05 -0.0252444 0.029918 -0.203504)
(-1.86896e-06 2.22983e-06 1.77398e-05 -0.025282 0.0299927 -0.203529)
(-5.73492e-07 -1.62556e-07 1.36713e-05 -0.0252557 0.029994 -0.203517)
(6.31629e-08 -2.21141e-06 2.11407e-05 -0.0252848 0.0299823 -0.203503)
(-1.46199e-06 -2.07544e-06 1.23215e-05 -0.0252666 0.0299214 -0.203507)
(-2.20659e-06 3.96635e-06 3.68257e-06 -0.0252823 0.0299825 -0.203512)
(5.43753e-08 4.9213e-06 -2.57048e-06 -0.0252721 0.03008 -0.203531)
(5.93606e-07 -1.21381e-06 2.2924e-06 -0.0252993 0.030008 -0.203527)
(-1.01183e-06 -2.1406e-06 7.86301e-07 -0.0252769 0.0299858 -0.203521)
(-9.67773e-08 2.54403e-06 -4.54088e-06 -0.0252873 0.0299872 -0.203522)
(7.97336e-07 -3.30105e-07 -9.0135e-07 -0.0252999 0.0300067 -0.203529)
(-2.62132e-07 -3.44881e-06 9.8771e-07 -0.0252766 0.0299856 -0.203522)
(-1.01115e-06 -1.71874e-06 -3.43214e-06 -0.0252843 0.0299806 -0.203493)
(-1.90244e-06 -1.03724e-07 -7.66776e-06 -0.0252812 0.029985 -0.203524)
(-1.52128e-06 2.74896e-06 -1.46035e-05 -0.0252817 0.0299907 -0.203519)
(-2.16387e-08 1.88523e-06 -1.7376e-05 -0.0252599 0.030031 -0.203519)
(-9.30009e-07 -1.14309e-06 -2.51523e-05 -0.0252786 0.0299907 -0.203525)
(-1.39075e-06 -9.9315e-07 -3.0137e-05 -0.0252633 0.0299899 -0.203518)
(-2.78429e-06 2.49361e-06 -1.98851e-05 -0.0252399 0.0300226 -0.203506)
(-2.65608e-05 -4.80357e-06 -3.50308e-05 -0.0253027 0.03001 -0.203503)
(-0.000235959 -8.64397e-05 -0.000211769 -0.0252853 0.0299427 -0.203423)
(-0.00194998 -0.000409629 -0.00166288 -0.0249488 0.0294053 -0.203761)
(-0.0177641 -0.000771889 -0.00856322 -0.0235773 0.0267718 -0.205727)
(-0.0860649 -0.00177648 -0.0503558 -0.0220258 0.0263737 -0.15228)
(-0.0887425 0.00139831 0.0521167 -0.0139502 0.0164665 -0.151263)
(-0.0183639 0.0006092 0.00895191 -0.0148823 0.0163778 -0.206543)
(-0.00203139 0.000319913 0.00181091 -0.0159393 0.0181855 -0.20448)
(-0.000259141 7.37372e-05 0.000232664 -0.0161925 0.0187143 -0.204176)
(-3.09875e-05 7.8816e-06 4.77127e-05 -0.0161812 0.0187551 -0.204246)
(-3.95518e-06 -2.50413e-06 2.96122e-05 -0.0161987 0.0188345 -0.204285)
(-1.37966e-06 -3.86364e-06 2.45291e-05 -0.0161535 0.0187604 -0.204265)
(-1.65596e-06 1.5277e-06 2.46654e-05 -0.0161935 0.0187482 -0.204273)
(-1.00218e-06 -1.6762e-06 1.36025e-05 -0.016186 0.0188191 -0.204284)
(-2.17541e-07 -2.87604e-06 5.43703e-06 -0.016186 0.0186965 -0.204259)
(-9.88927e-07 -1.64642e-06 1.10735e-05 -0.0161652 0.0187366 -0.204263)
(-1.55825e-06 1.31464e-07 1.0994e-05 -0.0161877 0.0186942 -0.204236)
(1.27771e-08 4.83954e-06 -5.85419e-07 -0.0162054 0.0187054 -0.204261)
(2.04046e-07 8.58443e-07 3.49062e-06 -0.0162058 0.0187608 -0.204271)
(-1.04189e-06 -2.54338e-06 9.42294e-07 -0.0161923 0.0187428 -0.204267)
(-1.36639e-07 1.85948e-06 -3.7495e-06 -0.0161898 0.0186964 -0.204258)
(4.87331e-07 8.13867e-07 -1.5708e-06 -0.0162058 0.0187592 -0.204273)
(-4.53564e-07 -4.25626e-06 -4.69983e-07 -0.0161917 0.0187436 -0.204269)
(-8.555e-07 -1.48838e-06 -4.56679e-06 -0.0161893 0.0186942 -0.204237)
(-1.57398e-06 1.34246e-06 -7.70495e-06 -0.0161983 0.018742 -0.204268)
(-1.19156e-06 2.96358e-06 -2.18397e-05 -0.0162013 0.018745 -0.204248)
(1.47552e-07 1.89077e-06 -1.61626e-05 -0.0161824 0.0187549 -0.204271)
(-1.39706e-06 -4.04627e-07 -8.18056e-06 -0.0161924 0.0187468 -0.204273)
(-1.65033e-06 6.766e-07 -3.13426e-05 -0.0161834 0.0187723 -0.204252)
(-2.8156e-06 4.27069e-07 -2.74999e-05 -0.0161746 0.0187744 -0.204266)
(-3.19068e-05 -8.27225e-06 -3.53885e-05 -0.0162119 0.0187567 -0.204246)
(-0.000260526 -7.23833e-05 -0.000243875 -0.0161881 0.0186554 -0.204135)
(-0.00203099 -0.000316628 -0.00181314 -0.0159478 0.0181944 -0.204496)
(-0.0183607 -0.000607746 -0.00895444 -0.0148821 0.0163764 -0.20654)
(-0.0887416 -0.00139737 -0.0521033 -0.0139377 0.016532 -0.151266)
(-0.0903997 0.00096493 0.0534009 -0.0088205 0.0102386 -0.150983)
(-0.0188002 0.000448266 0.00928269 -0.00929852 0.00999138 -0.207535)
(-0.00209828 0.000237877 0.00192578 -0.0101 0.0113135 -0.20547)
(-0.000278724 5.8307e-05 0.000273588 -0.0103126 0.011668 -0.205148)
(-3.63067e-05 6.79814e-06 5.05933e-05 -0.01032 0.0117618 -0.205216)
(-4.51588e-06 -9.98856e-07 2.05396e-05 -0.0103372 0.0117193 -0.205249)
(-1.00519e-06 -2.69734e-06 2.43172e-05 -0.0103011 0.0117584 -0.205235)
(-1.70965e-06 -1.38761e-06 2.42351e-05 -0.0103185 0.0116985 -0.205248)
(-9.56966e-07 -2.58541e-07 5.80918e-06 -0.0103281 0.0117068 -0.20525)
(-2.72077e-07 -2.05044e-07 1.24908e-05 -0.0102966 0.0116963 -0.205245)
(-1.35158e-06 -1.77561e-06 9.63229e-06 -0.0103066 0.0117501 -0.205253)
(-7.81216e-07 -1.75768e-06 -3.20442e-06 -0.0103018 0.011694 -0.205236)
(5.99114e-07 2.88413e-06 9.10733e-06 -0.0103026 0.0116621 -0.205231)
(-5.21323e-07 5.25405e-07 1.07505e-05 -0.0103253 0.0117065 -0.205244)
(-1.1773e-06 -9.01782e-07 -6.71234e-06 -0.0103181 0.0116948 -0.205243)
(1.80767e-07 1.44353e-06 -2.79539e-06 -0.0102996 0.0116955 -0.20524)
(-9.99542e-08 -3.87091e-07 5.48595e-06 -0.0103252 0.0117051 -0.205245)
(-7.43324e-07 -2.70598e-06 -1.0034e-05 -0.0103175 0.0116956 -0.205244)
(-2.44233e-07 -1.93487e-06 -5.06106e-06 -0.0103035 0.0116934 -0.205241)
(-1.02921e-06 -8.69235e-07 2.67876e-07 -0.0103139 0.011652 -0.205234)
(-1.05391e-06 4.81384e-06 -1.35438e-05 -0.0103209 0.0116576 -0.205217)
(-5.48875e-07 2.99867e-06 -1.48588e-05 -0.0103185 0.0117641 -0.205257)
(-1.74634e-06 -1.31625e-06 -2.36221e-05 -0.0103177 0.0116988 -0.205249)
(-1.11127e-06 2.02708e-06 -3.12466e-05 -0.0103102 0.011708 -0.205242)
(-3.40702e-06 -1.36419e-06 -1.89016e-05 -0.0103056 0.0117273 -0.205241)
(-3.67537e-05 -8.8068e-06 -4.5616e-05 -0.0103222 0.0116605 -0.20521)
(-0.000279537 -5.41448e-05 -0.00027618 -0.0103006 0.0116593 -0.205114)
(-0.00209817 -0.000235766 -0.00192174 -0.0101054 0.011317 -0.205465)
(-0.0187982 -0.000447802 -0.00928549 -0.00929966 0.00998928 -0.207529)
(-0.090395 -0.000966232 -0.0533953 -0.00882739 0.0102504 -0.150987)
(-0.0914185 0.00061308 0.0542503 -0.00556865 0.00639929 -0.150959)
(-0.0190866 0.000311253 0.00954545 -0.00576946 0.00614849 -0.208326)
(-0.00214851 0.000172289 0.00201356 -0.00637942 0.00711487 -0.206271)
(-0.000293539 4.1742e-05 0.000285701 -0.00653794 0.00732582 -0.205942)
(-3.97676e-05 5.45672e-06 5.28814e-05 -0.00655948 0.00736365 -0.206008)
(-5.10172e-06 1.07168e-06 2.66255e-05 -0.00655815 0.00736603 -0.206042)
(-1.18584e-06 -1.94442e-06 2.26409e-05 -0.00655243 0.00741161 -0.206052)
(-1.38634e-06 -2.09958e-06 1.75526e-05 -0.00654599 0.00735205 -0.206045)
(-8.20996e-07 1.55225e-06 1.29713e-05 -0.00655166 0.00735852 -0.206046)
(-6.54486e-07 -2.72212e-07 1.18247e-05 -0.00653839 0.0074013 -0.206051)
(-1.36034e-06 -2.23454e-06 8.22864e-06 -0.0065497 0.00735579 -0.206044)
(-4.04186e-07 1.39511e-06 -2.95937e-06 -0.00653386 0.00736131 -0.206041)
(6.49039e-07 1.16849e-06 3.57757e-06 -0.00652721 0.00740509 -0.206043)
(-5.46204e-07 -2.37443e-06 1.04507e-05 -0.00654933 0.00735679 -0.206041)
(-1.05994e-06 9.36275e-07 9.62388e-08 -0.00654675 0.00734879 -0.206042)
(-1.30319e-07 1.1879e-06 -2.00029e-06 -0.00653967 0.00739982 -0.206048)
(-3.31755e-07 -1.95574e-06 -1.83238e-06 -0.00654915 0.00735553 -0.206043)
(-7.89401e-07 -1.32163e-06 -4.05745e-06 -0.00654531 0.00735001 -0.206042)
(-4.86588e-07 -4.41499e-07 -1.24816e-05 -0.00653898 0.0073599 -0.206042)
(-3.80832e-07 -1.24879e-06 -1.43991e-05 -0.0065296 0.00734794 -0.206035)
(-2.55671e-07 2.48275e-06 -5.12497e-06 -0.00652608 0.00731347 -0.206032)
(-8.77947e-07 2.32099e-06 -6.1982e-06 -0.00655675 0.00736396 -0.206046)
(-2.07659e-06 9.03314e-07 -1.68867e-05 -0.00654547 0.00735306 -0.206046)
(-1.45427e-06 3.70699e-06 -3.05605e-05 -0.00654583 0.00740932 -0.206052)
(-4.08497e-06 -1.75364e-06 -3.26307e-05 -0.00654161 0.00741774 -0.206044)
(-3.95567e-05 -9.25522e-06 -4.22602e-05 -0.00653384 0.00735354 -0.206011)
(-0.000294084 -4.0244e-05 -0.000279045 -0.00653266 0.00732917 -0.205933)
(-0.00214886 -0.000170922 -0.00201534 -0.00638368 0.00711535 -0.206263)
(-0.0190857 -0.000310694 -0.00954935 -0.0057718 0.00614717 -0.208301)
(-0.0914153 -0.000614508 -0.0542477 -0.00557296 0.00640841 -0.150963)
(-0.0920459 0.00036999 0.0547767 -0.00351586 0.00401511 -0.150983)
(-0.019262 0.000204748 0.0097226 -0.00357482 0.00381604 -0.208849)
(-0.00218266 0.000122139 0.00207868 -0.00402832 0.00444271 -0.206796)
(-0.000304587 3.07583e-05 0.00030008 -0.00413979 0.00462482 -0.206478)
(-4.23321e-05 4.32125e-06 5.37153e-05 -0.00415746 0.00465325 -0.20656)
(-5.57892e-06 9.30678e-07 2.66484e-05 -0.00415593 0.00465434 -0.20658)
(-1.32191e-06 -1.27896e-06 2.17262e-05 -0.00416112 0.00465875 -0.206586)
(-1.15382e-06 -1.25341e-06 1.74008e-05 -0.00414843 0.00464641 -0.206584)
(-7.83592e-07 8.72509e-07 1.3496e-05 -0.0041514 0.00464979 -0.206583)
(-1.04755e-06 -2.35012e-07 1.16921e-05 -0.0041548 0.00465376 -0.20657)
(-1.07739e-06 -5.87411e-07 1.92091e-07 -0.0041507 0.00465037 -0.206581)
(1.38725e-07 2.362e-06 3.97798e-06 -0.00413914 0.00465217 -0.206578)
(1.23318e-07 -5.22682e-09 1.11682e-05 -0.00415135 0.00469879 -0.206586)
(-7.39896e-07 -3.41889e-06 3.01355e-06 -0.0041501 0.00464961 -0.206581)
(-6.54591e-07 3.40683e-07 1.56079e-07 -0.00415236 0.00464375 -0.206582)
(-3.01672e-07 1.21952e-06 -1.35753e-06 -0.00415455 0.00465264 -0.206571)
(-7.04796e-07 -1.20492e-06 -2.3677e-06 -0.00414959 0.00464875 -0.206583)
(-5.53118e-07 -1.11358e-06 -1.11727e-05 -0.00414856 0.00464456 -0.206582)
(-1.26209e-07 1.03323e-06 -5.73957e-06 -0.00413632 0.00461621 -0.206558)
(-4.44452e-07 1.77476e-06 -8.12723e-06 -0.00414655 0.00468761 -0.206584)
(-1.97591e-07 5.60032e-07 -1.06939e-05 -0.00412958 0.00469149 -0.206584)
(-8.7434e-07 -7.18617e-07 -5.23194e-06 -0.0041548 0.00465506 -0.206583)
(-1.88105e-06 6.1219e-07 -1.70195e-05 -0.00414805 0.0046478 -0.206585)
(-1.41379e-06 3.72802e-06 -2.26597e-05 -0.00415826 0.00465728 -0.206585)
(-5.35156e-06 2.31038e-07 -2.59638e-05 -0.00416079 0.00470629 -0.206583)
(-4.23717e-05 -8.48338e-06 -5.92205e-05 -0.00414598 0.00469111 -0.20656)
(-0.000304278 -3.18273e-05 -0.000300107 -0.00412923 0.00458832 -0.206463)
(-0.00218284 -0.000121007 -0.00207255 -0.00403111 0.00444134 -0.206788)
(-0.0192621 -0.000203832 -0.00972441 -0.00357561 0.00381323 -0.208844)
(-0.0920448 -0.000370925 -0.0547764 -0.0035165 0.00402174 -0.150985)
(-0.0924315 0.000216928 0.0550903 -0.0022265 0.00251821 -0.151005)
(-0.019365 0.000130269 0.00983819 -0.00222312 0.00237813 -0.209169)
(-0.00220446 8.4615e-05 0.0021254 -0.00254177 0.00279388 -0.207125)
(-0.000312563 2.20254e-05 0.000310738 -0.00262681 0.00292238 -0.206814)
(-4.42408e-05 3.26316e-06 5.61873e-05 -0.00264487 0.00294398 -0.206887)
(-5.98512e-06 1.06611e-06 2.69442e-05 -0.00264017 0.00294365 -0.206919)
(-1.45914e-06 -7.74908e-07 2.11302e-05 -0.00264277 0.00294701 -0.206922)
(-1.04913e-06 -8.2938e-07 1.6827e-05 -0.00263524 0.00293913 -0.206923)
(-7.52818e-07 2.6185e-07 1.34895e-05 -0.00263662 0.00294103 -0.206923)
(-9.45803e-07 -2.05206e-07 1.1473e-05 -0.00263943 0.00294548 -0.206911)
(-8.9321e-07 1.15138e-06 6.74847e-06 -0.00263691 0.00294185 -0.206919)
(-8.11234e-08 1.4642e-06 4.54847e-06 -0.00263654 0.0029842 -0.206923)
(-2.59054e-07 -1.2567e-06 4.56033e-06 -0.00264583 0.0029507 -0.206919)
(-6.48508e-07 -3.09884e-06 2.09239e-06 -0.00263609 0.00294173 -0.20692)
(-2.75503e-07 3.81504e-08 -8.68154e-08 -0.00263213 0.00290232 -0.206915)
(-3.36862e-07 1.80844e-06 -8.0169e-07 -0.00263798 0.00294382 -0.206922)
(-9.27138e-07 -8.93588e-07 -2.56933e-06 -0.0026354 0.00294147 -0.206922)
(-4.64352e-07 1.21209e-06 -1.17452e-05 -0.00263831 0.00293809 -0.206921)
(1.94046e-07 1.37524e-08 -5.49404e-06 -0.00262033 0.00298404 -0.20692)
(-3.62271e-07 2.45054e-07 -9.22292e-07 -0.00263734 0.0029071 -0.206914)
(-5.72824e-07 1.33557e-06 -9.94926e-06 -0.0026413 0.00298559 -0.206925)
(-9.53313e-07 -1.45279e-06 -1.17268e-05 -0.00263999 0.00294446 -0.20692)
(-1.51881e-06 4.35534e-07 -1.68279e-05 -0.00263498 0.0029407 -0.206923)
(-1.43394e-06 2.16238e-06 -2.15766e-05 -0.00264169 0.00294678 -0.206922)
(-6.10918e-06 -8.63903e-08 -2.62273e-05 -0.00265133 0.00295326 -0.206916)
(-4.4445e-05 -4.27948e-06 -6.18199e-05 -0.0026431 0.00294396 -0.206895)
(-0.000311945 -2.32543e-05 -0.000310955 -0.00261951 0.0029617 -0.206806)
(-0.00220449 -8.54951e-05 -0.00211879 -0.00254463 0.00279123 -0.207118)
(-0.0193658 -0.000128969 -0.00983973 -0.00222216 0.00237552 -0.209167)
(-0.0924323 -0.000217336 -0.0550918 -0.00222264 0.00252308 -0.151007)
(-0.0926716 0.000125712 0.0552728 -0.00140791 0.00153222 -0.151017)
(-0.0194241 8.1632e-05 0.00991012 -0.0013948 0.00147895 -0.209361)
(-0.00221787 5.71843e-05 0.00215807 -0.00161375 0.0017483 -0.207327)
(-0.00031821 1.4715e-05 0.000318302 -0.00167743 0.00183779 -0.207021)
(-4.54927e-05 2.29491e-06 5.62254e-05 -0.00168599 0.00181661 -0.207103)
(-6.24249e-06 1.74615e-06 2.75367e-05 -0.00168906 0.0018523 -0.207128)
(-1.66334e-06 -3.81993e-07 2.07321e-05 -0.00168976 0.00185408 -0.207131)
(-1.02675e-06 -5.23845e-07 1.63322e-05 -0.00168528 0.00185 -0.207133)
(-7.30932e-07 9.94718e-08 1.30664e-05 -0.00168581 0.00185165 -0.207133)
(-8.34049e-07 -2.45168e-07 1.10577e-05 -0.0016865 0.00185397 -0.207132)
(-7.47832e-07 3.36686e-07 7.19169e-06 -0.00168729 0.00185143 -0.207129)
(-2.00655e-07 9.82031e-07 5.23178e-06 -0.00169778 0.00185616 -0.207128)
(-6.56109e-07 -3.14236e-07 4.49483e-06 -0.00169196 0.00185785 -0.207126)
(-6.08196e-07 -1.32789e-06 -5.50425e-06 -0.00168573 0.00185231 -0.207129)
(2.55449e-07 1.17057e-07 -9.20668e-08 -0.00167399 0.00184926 -0.207125)
(-4.17855e-07 6.51566e-07 6.39925e-06 -0.00168597 0.00185447 -0.207131)
(-9.64907e-07 -1.45672e-06 -2.81104e-06 -0.00168491 0.00185267 -0.20713)
(-4.46153e-07 2.02344e-06 -5.07261e-06 -0.00168143 0.00181581 -0.207127)
(-1.62523e-07 1.41578e-06 -1.19223e-05 -0.0016874 0.00189655 -0.207133)
(-9.05629e-08 -2.08523e-06 -7.20613e-06 -0.00167714 0.00185279 -0.207123)
(-4.39826e-07 4.18214e-08 -2.89248e-06 -0.00169115 0.00182443 -0.207125)
(-1.1194e-06 7.09131e-08 -1.20692e-05 -0.00169022 0.00185218 -0.207128)
(-1.35356e-06 4.52427e-07 -1.66144e-05 -0.00168513 0.00185169 -0.207132)
(-1.49181e-06 1.19559e-06 -2.07541e-05 -0.00168949 0.00185447 -0.20713)
(-6.46015e-06 -3.37227e-07 -2.62932e-05 -0.00169474 0.00185833 -0.207124)
(-4.59647e-05 -3.1694e-06 -5.69486e-05 -0.00169192 0.00185249 -0.207102)
(-0.00031772 -1.68555e-05 -0.000319474 -0.00168387 0.00184242 -0.207011)
(-0.00221761 -5.77238e-05 -0.00215821 -0.00161878 0.00174517 -0.207322)
(-0.0194252 -7.90972e-05 -0.0099118 -0.00139384 0.00147708 -0.209361)
(-0.0926696 -0.000125173 -0.0552759 -0.00141222 0.00157366 -0.151024)
(-0.0928182 7.22306e-05 0.055373 -0.000895814 0.000965623 -0.151027)
(-0.0194577 4.84096e-05 0.00996335 -0.000890638 0.000907579 -0.209477)
(-0.00222607 3.74582e-05 0.00218017 -0.00104014 0.00107832 -0.207452)
(-0.000322029 1.09264e-05 0.000317324 -0.0010874 0.00113893 -0.207148)
(-4.61787e-05 1.46384e-06 5.69268e-05 -0.0010864 0.00114788 -0.207231)
(-6.4308e-06 4.65641e-07 3.4457e-05 -0.00109837 0.00114714 -0.207257)
(-1.9288e-06 -2.86872e-08 2.05401e-05 -0.00109716 0.00114871 -0.20726)
(-1.01505e-06 -2.67303e-07 1.60352e-05 -0.00109439 0.00114694 -0.207262)
(-7.22728e-07 1.96401e-07 1.305e-05 -0.00109471 0.00114851 -0.207263)
(-8.41633e-07 -3.58428e-07 1.08319e-05 -0.00109541 0.00115068 -0.207261)
(-6.29009e-07 -8.4898e-07 7.35634e-06 -0.00109729 0.00114695 -0.207258)
(-1.53389e-07 7.88237e-07 5.69455e-06 -0.00109639 0.00111702 -0.207253)
(-6.83062e-07 7.65642e-07 4.31857e-06 -0.00109818 0.00115121 -0.207256)
(-6.23438e-07 5.19532e-08 6.57767e-07 -0.00109489 0.00114887 -0.207258)
(1.23666e-07 1.27568e-07 1.5195e-07 -0.00109637 0.00118262 -0.207258)
(-6.16944e-07 -2.99411e-07 2.10189e-07 -0.00109635 0.00115046 -0.207257)
(-7.73958e-07 -1.58065e-07 -9.81924e-06 -0.00109456 0.00114975 -0.207258)
(6.26521e-08 1.13834e-06 -4.68383e-06 -0.00108164 0.00114862 -0.207255)
(-4.82615e-07 1.01158e-06 1.53294e-06 -0.00110306 0.00115696 -0.207258)
(-5.59586e-07 -5.14114e-07 -1.39328e-05 -0.00109768 0.00118488 -0.207257)
(-1.21662e-07 -1.34518e-06 -9.48972e-06 -0.00108687 0.00115394 -0.207252)
(-9.22863e-07 -6.47422e-07 -5.66244e-06 -0.00110126 0.00114716 -0.207257)
(-1.38327e-06 6.24677e-07 -1.63219e-05 -0.00109428 0.00114885 -0.207261)
(-1.58878e-06 5.92532e-07 -2.03528e-05 -0.0010975 0.00114917 -0.207259)
(-6.92141e-06 -6.4815e-07 -2.65058e-05 -0.00109984 0.00115104 -0.207253)
(-4.71125e-05 -2.64565e-06 -6.47406e-05 -0.00110194 0.00114672 -0.20723)
(-0.000321239 -1.2119e-05 -0.000325651 -0.00108208 0.00110765 -0.207132)
(-0.00222515 -3.75168e-05 -0.00217396 -0.00103694 0.00104172 -0.207443)
(-0.0194588 -4.65816e-05 -0.00995506 -0.000890261 0.000907074 -0.209476)
(-0.0928141 -7.10741e-05 -0.0553815 -0.000908917 0.000965449 -0.151036)
(-0.0928994 4.05252e-05 0.0554404 -0.000606731 0.000609949 -0.151043)
(-0.0194771 2.70002e-05 0.00997876 -0.00058975 0.000535071 -0.209544)
(-0.00223012 2.32764e-05 0.00219456 -0.000693935 0.000639177 -0.207526)
(-0.000324531 7.78714e-06 0.000328184 -0.000730651 0.000678112 -0.207224)
(-4.71927e-05 3.7861e-07 5.82089e-05 -0.000741824 0.000716731 -0.207302)
(-6.50388e-06 -3.11082e-07 2.77915e-05 -0.000741724 0.000681278 -0.207335)
(-1.8486e-06 4.3936e-07 2.05811e-05 -0.00073726 0.000682986 -0.207339)
(-1.02471e-06 -8.23224e-08 1.59129e-05 -0.000735593 0.000682581 -0.207341)
(-7.47101e-07 5.24797e-08 1.32227e-05 -0.000735998 0.000683829 -0.207341)
(-9.9183e-07 -6.70661e-07 1.07191e-05 -0.000737728 0.000685163 -0.20733)
(-4.99438e-07 2.23027e-07 6.03323e-07 -0.000740856 0.000681724 -0.207337)
(1.35559e-07 9.10833e-07 6.10613e-06 -0.000726479 0.000685521 -0.20733)
(-8.10643e-07 -1.88511e-07 1.08924e-05 -0.00073751 0.000685253 -0.207335)
(-7.57819e-07 -1.12018e-06 4.6061e-07 -0.000736093 0.000684167 -0.207337)
(2.17314e-07 -1.47674e-07 3.68128e-07 -0.000739066 0.000650054 -0.207333)
(-4.66798e-07 9.49692e-07 4.86345e-07 -0.000739055 0.000684239 -0.207326)
(-7.48446e-07 1.41109e-06 -3.19669e-06 -0.000736778 0.000685042 -0.207327)
(-2.24684e-07 7.79037e-07 -4.27627e-06 -0.000733133 0.000720174 -0.207337)
(-4.22157e-07 -1.61595e-06 -5.04466e-06 -0.000741542 0.000689378 -0.207334)
(-5.1275e-07 9.26481e-07 -7.41465e-06 -0.000739209 0.000651924 -0.207332)
(-4.47554e-07 -8.19029e-07 -9.69137e-06 -0.000736096 0.000723176 -0.207334)
(-7.68981e-07 -1.61593e-06 -1.25199e-05 -0.000734872 0.000648222 -0.207333)
(-1.15083e-06 1.16624e-06 -1.61665e-05 -0.000736141 0.000684644 -0.207338)
(-1.74427e-06 2.20436e-07 -2.02712e-05 -0.000738387 0.000683025 -0.207337)
(-7.10623e-06 -1.25485e-06 -2.6713e-05 -0.000738613 0.000684442 -0.207332)
(-4.79012e-05 2.74601e-08 -6.54617e-05 -0.000734916 0.000647606 -0.207305)
(-0.000323792 -5.90288e-06 -0.000336901 -0.000719796 0.000714763 -0.207213)
(-0.00222921 -2.50499e-05 -0.00218856 -0.00068081 0.000638121 -0.207517)
(-0.0194774 -2.75567e-05 -0.00997313 -0.000590655 0.000534696 -0.209542)
(-0.0928996 -3.99236e-05 -0.0554371 -0.000604313 0.000572091 -0.151046)
(-0.092948 2.09113e-05 0.0554741 -0.000435749 0.000263009 -0.151046)
(-0.0194875 1.54135e-05 0.00999319 -0.000420445 0.000279993 -0.209585)
(-0.00223252 1.25297e-05 0.00220326 -0.000498488 0.000336129 -0.207569)
(-0.00032613 2.67907e-06 0.000331904 -0.000528913 0.000357231 -0.207258)
(-4.7588e-05 -6.46412e-07 5.70505e-05 -0.000539865 0.000324588 -0.207355)
(-6.37961e-06 1.38931e-06 2.82169e-05 -0.000529842 0.000324634 -0.207378)
(-1.927e-06 1.23044e-06 2.07781e-05 -0.00053287 0.0003597 -0.207384)
(-1.12817e-06 2.49664e-08 1.58968e-05 -0.000532038 0.000359961 -0.207386)
(-8.38934e-07 -1.19684e-07 1.29418e-05 -0.000532521 0.000360821 -0.207385)
(-7.65512e-07 -1.33607e-06 1.01369e-05 -0.000533148 0.000359951 -0.207384)
(-2.89997e-07 1.38113e-06 7.68933e-06 -0.000529679 0.000325476 -0.207379)
(-2.29245e-07 1.46486e-06 6.52956e-06 -0.000532068 0.000396715 -0.207378)
(-1.10423e-06 -1.18392e-06 4.1135e-06 -0.000534302 0.000362274 -0.207379)
(-6.36428e-07 -2.75748e-07 -6.44151e-06 -0.000532411 0.000361233 -0.207381)
(5.59581e-07 -4.88002e-07 -8.05523e-08 -0.000524678 0.00036062 -0.207377)
(-2.90482e-07 7.50606e-08 7.20581e-06 -0.00053543 0.000358012 -0.207381)
(-8.25815e-07 1.05772e-06 -2.51068e-06 -0.000533362 0.000360852 -0.207381)
(-5.40394e-07 4.60653e-07 -3.61184e-06 -0.000538283 0.000363284 -0.207382)
(-4.44174e-07 -1.5826e-07 -1.1621e-05 -0.000536505 0.000362787 -0.20737)
(-3.86898e-07 4.33155e-07 -7.29411e-06 -0.000523539 0.000362819 -0.207375)