/*--------------------------------*- C++ -*----------------------------------*\
| =========                 |                                                 |
| \\      /  F ield         | OpenFOAM: The Open Source CFD Toolbox           |
|  \\    /   O peration     | Version:  2106                                  |
|   \\  /    A nd           | Website:  www.openfoam.com                      |
|    \\/     M anipulation  |                                                 |
\*---------------------------------------------------------------------------*/
FoamFile
{
    version     2.0;
    format      ascii;
    arch        "LSB;label=32;scalar=64";
    class       volSymmTensorField;
    location    "921";
    object      sigma;
}
// * * * * * * * * * * * * * * * * * * * * * * * * * * * * * * * * * * * * * //

dimensions      [1 -1 -2 0 0 0 0];

internalField   nonuniform List<symmTensor> 
9000
(
(5.39353e+07 -135921 2.48448e+07 2.21918e+07 3.16774e+07 8.49932e+07)
(9.63409e+07 277450 4.84066e+06 2.42741e+07 3.35973e+07 6.9011e+07)
(1.10954e+08 173205 1.32341e+06 2.61169e+07 3.56752e+07 8.12467e+07)
(1.12755e+08 26121.1 232792 2.62567e+07 3.61337e+07 8.33128e+07)
(1.12971e+08 -4100.56 20304.8 2.62935e+07 3.61474e+07 8.33852e+07)
(1.12979e+08 -1062.43 8928 2.63689e+07 3.60382e+07 8.3225e+07)
(1.12977e+08 -19.2675 13037.4 2.63016e+07 3.61225e+07 8.32808e+07)
(1.12986e+08 -3052.6 3922.58 2.63777e+07 3.60387e+07 8.32297e+07)
(1.12982e+08 3327.21 16094.6 2.63761e+07 3.6037e+07 8.3223e+07)
(1.12997e+08 3419.07 -3872.75 2.63038e+07 3.61337e+07 8.33532e+07)
(1.13002e+08 -3232.8 -25314.9 2.63652e+07 3.60732e+07 8.32879e+07)
(1.12981e+08 -278.496 20497.4 2.64348e+07 3.59749e+07 8.31401e+07)
(1.12991e+08 2812.54 30404.9 2.63026e+07 3.61276e+07 8.33316e+07)
(1.12989e+08 427.605 -15569.6 2.62913e+07 3.61321e+07 8.3335e+07)
(1.13005e+08 445.191 958.661 2.63613e+07 3.60778e+07 8.32984e+07)
(1.12999e+08 -611.918 15721.7 2.63024e+07 3.61346e+07 8.3352e+07)
(1.12989e+08 175.053 -18737.2 2.62917e+07 3.61317e+07 8.33321e+07)
(1.13004e+08 390.288 -1615.57 2.636e+07 3.60789e+07 8.33037e+07)
(1.12998e+08 -3438.06 -12800.9 2.63068e+07 3.61303e+07 8.33433e+07)
(1.12988e+08 -3288.04 -13744.5 2.6438e+07 3.59798e+07 8.31682e+07)
(1.1298e+08 3003.06 20514.8 2.63787e+07 3.60335e+07 8.32059e+07)
(1.12992e+08 3373.68 3551.43 2.62986e+07 3.61305e+07 8.33402e+07)
(1.13e+08 -3032.25 -16452.4 2.63033e+07 3.61352e+07 8.33565e+07)
(1.12987e+08 -417.577 -13580.8 2.63728e+07 3.6041e+07 8.32379e+07)
(1.12989e+08 855.96 -12330.1 2.6301e+07 3.61277e+07 8.33341e+07)
(1.12958e+08 1000.63 -47890.2 2.6366e+07 3.6054e+07 8.32703e+07)
(1.12755e+08 -23569.5 -226781 2.63209e+07 3.60693e+07 8.32361e+07)
(1.10943e+08 -173090 -1.30394e+06 2.61092e+07 3.56692e+07 8.12226e+07)
(9.63383e+07 -276962 -4.83979e+06 2.42737e+07 3.35968e+07 6.9009e+07)
(5.39338e+07 135884 -2.48454e+07 2.21902e+07 3.16751e+07 8.49884e+07)
(4.17511e+07 -5804.79 2.39765e+07 2.851e+07 3.51726e+07 1.25592e+07)
(7.28747e+07 352101 4.1395e+06 2.80981e+07 3.7012e+07 -8.94496e+06)
(8.60173e+07 223206 795487 3.05972e+07 3.93263e+07 -1.43061e+06)
(8.73506e+07 36609.5 118173 3.05056e+07 3.99236e+07 -568082)
(8.74936e+07 -3261.03 16468.3 3.05447e+07 3.99407e+07 -541405)
(8.76098e+07 -1685.34 15978.7 3.07627e+07 3.99062e+07 -444987)
(8.75304e+07 260.997 13204.5 3.05959e+07 3.99119e+07 -531348)
(8.7625e+07 -884.512 -1444.04 3.07887e+07 3.99086e+07 -429867)
(8.76223e+07 1063.99 17615.5 3.07851e+07 3.9905e+07 -436277)
(8.75214e+07 3725.46 17441.1 3.05736e+07 3.99185e+07 -539281)
(8.75806e+07 1713.58 -5914.15 3.0683e+07 4.00087e+07 -465226)
(8.7687e+07 -3036.31 2245.42 3.0903e+07 3.99904e+07 -353783)
(8.75205e+07 -3604.07 12269.2 3.05736e+07 3.99094e+07 -541988)
(8.75401e+07 3254.78 930.028 3.06048e+07 3.98397e+07 -512692)
(8.75741e+07 1935.88 -755.752 3.06699e+07 4.00157e+07 -473628)
(8.75191e+07 -4650.15 -1068.8 3.05694e+07 3.99208e+07 -543881)
(8.75404e+07 2664.74 -432.221 3.06056e+07 3.98392e+07 -513874)
(8.7574e+07 1962.78 -1803.57 3.06677e+07 4.00164e+07 -471025)
(8.75248e+07 -1109.18 -12721.4 3.05821e+07 3.99135e+07 -538016)
(8.76833e+07 -991.477 -14408.2 3.08957e+07 4.00011e+07 -356283)
(8.76349e+07 -2143.19 2450.89 3.08059e+07 3.98986e+07 -417612)
(8.75139e+07 992.872 2602.14 3.05606e+07 3.99134e+07 -550036)
(8.75197e+07 -558.968 -19337.4 3.05706e+07 3.99212e+07 -541540)
(8.76182e+07 -896.542 -11715.6 3.07729e+07 3.99101e+07 -435263)
(8.75142e+07 1765.05 -14818.2 3.05666e+07 3.99084e+07 -546136)
(8.7596e+07 5122.35 -26027.2 3.07548e+07 3.9932e+07 -430883)
(8.74161e+07 -37896.8 -107667 3.06285e+07 4.00078e+07 -486899)
(8.60343e+07 -225771 -796490 3.0633e+07 3.92437e+07 -1.41298e+06)
(7.28761e+07 -350378 -4.14084e+06 2.81005e+07 3.7011e+07 -8.94283e+06)
(4.17503e+07 5791.08 -2.39768e+07 2.85067e+07 3.51673e+07 1.25574e+07)
(4.53337e+07 604969 2.41141e+07 5.50067e+07 3.00048e+07 5.55967e+06)
(8.00972e+07 449559 4.05685e+06 5.75572e+07 3.12853e+07 -1.55659e+07)
(9.39294e+07 268009 705385 6.21721e+07 3.33852e+07 -8.27521e+06)
(9.53065e+07 50674.6 87080.6 6.23348e+07 3.39925e+07 -7.57724e+06)
(9.54419e+07 -454.671 28703.5 6.23824e+07 3.40148e+07 -7.55952e+06)
(9.5522e+07 -2661.72 17747.7 6.251e+07 3.40712e+07 -7.46624e+06)
(9.54674e+07 1123.95 12755.2 6.24148e+07 3.39831e+07 -7.54741e+06)
(9.55184e+07 2310.99 11302.9 6.25085e+07 3.41215e+07 -7.48106e+06)
(9.55135e+07 -1476.42 4059.09 6.24989e+07 3.41177e+07 -7.48836e+06)
(9.54671e+07 -1435.61 4791.8 6.24117e+07 3.3994e+07 -7.55196e+06)
(9.54769e+07 1659.41 9547.82 6.24285e+07 3.39809e+07 -7.53403e+06)
(9.55322e+07 -1393.26 2459.59 6.25306e+07 3.4108e+07 -7.45749e+06)
(9.54955e+07 -1775.24 -10276.6 6.24515e+07 3.3937e+07 -7.4998e+06)
(9.55072e+07 1984.62 306.549 6.24871e+07 3.39954e+07 -7.50257e+06)
(9.54726e+07 269.72 6226.51 6.24218e+07 3.39892e+07 -7.54021e+06)
(9.54645e+07 -549.404 -8785.48 6.24089e+07 3.3997e+07 -7.55462e+06)
(9.55057e+07 239.084 83.4043 6.2486e+07 3.39948e+07 -7.50539e+06)
(9.5473e+07 146.611 5941.13 6.24204e+07 3.39889e+07 -7.54041e+06)
(9.54689e+07 1203.97 1435.61 6.24176e+07 3.39889e+07 -7.54879e+06)
(9.55288e+07 1446.65 -472.417 6.25249e+07 3.41107e+07 -7.46323e+06)
(9.55269e+07 -2846.12 -11038.8 6.25221e+07 3.41183e+07 -7.46731e+06)
(9.54797e+07 -1310.87 -12009.1 6.24291e+07 3.39419e+07 -7.52979e+06)
(9.54654e+07 2632.31 -6625.14 6.24104e+07 3.39976e+07 -7.5537e+06)
(9.55095e+07 -2047.33 -10730 6.24898e+07 3.41214e+07 -7.48993e+06)
(9.5476e+07 2086.23 -15221.5 6.24258e+07 3.39368e+07 -7.52731e+06)
(9.54942e+07 2389.61 -23534.6 6.2477e+07 3.41426e+07 -7.4871e+06)
(9.5323e+07 -52807.6 -97117.9 6.23643e+07 3.39732e+07 -7.5505e+06)
(9.39695e+07 -267869 -708905 6.22493e+07 3.33751e+07 -8.2294e+06)
(8.01007e+07 -449834 -4.05141e+06 5.75612e+07 3.12843e+07 -1.55613e+07)
(4.53316e+07 -604860 -2.41139e+07 5.49983e+07 2.99982e+07 5.55533e+06)
(4.9761e+07 936519 2.49512e+07 7.38576e+07 2.1103e+07 1.2403e+07)
(8.85269e+07 454104 4.19749e+06 7.81321e+07 2.18036e+07 -8.60792e+06)
(1.03358e+08 255338 767125 8.41468e+07 2.35275e+07 -653241)
(1.04869e+08 51826.1 97702.1 8.45315e+07 2.39808e+07 151120)
(1.05016e+08 -393.434 21055.9 8.45777e+07 2.40047e+07 168233)
(1.05074e+08 -3486.85 18031.6 8.46577e+07 2.39514e+07 234387)
(1.05051e+08 651.635 17124.3 8.46218e+07 2.3945e+07 196129)
(1.05033e+08 792.803 9740.84 8.45949e+07 2.39885e+07 166672)
(1.05054e+08 254.911 6413.55 8.46183e+07 2.39505e+07 206726)
(1.05043e+08 169.668 6026.96 8.46065e+07 2.39882e+07 177543)
(1.05045e+08 -1028.39 7604.59 8.46121e+07 2.39813e+07 182383)
(1.05051e+08 387.343 -2326.47 8.46174e+07 2.39767e+07 201656)
(1.05072e+08 3067.73 -1826.81 8.46603e+07 2.39886e+07 218319)
(1.05052e+08 534.604 5394.35 8.46281e+07 2.40736e+07 183587)
(1.05044e+08 -1793.06 -385.062 8.4613e+07 2.39886e+07 180720)
(1.0504e+08 2116.2 -1975.59 8.46034e+07 2.39915e+07 173297)
(1.0505e+08 -312.58 -133.396 8.46257e+07 2.40729e+07 179808)
(1.05045e+08 -2183.51 -162.783 8.46129e+07 2.39884e+07 180314)
(1.05053e+08 -808.051 -761.878 8.46193e+07 2.39835e+07 200314)
(1.05039e+08 -386.276 -2960.04 8.46039e+07 2.39824e+07 175903)
(1.05047e+08 578.883 -13554.3 8.4611e+07 2.39832e+07 193683)
(1.05072e+08 816.575 -10178.1 8.46535e+07 2.39856e+07 221123)
(1.05041e+08 -646.357 -3465.49 8.46066e+07 2.39929e+07 174359)
(1.05041e+08 -1978.85 -15571.2 8.4603e+07 2.39527e+07 182833)
(1.05081e+08 2507.16 -15461.3 8.4668e+07 2.39464e+07 245327)
(1.05013e+08 98.1188 -17768 8.45714e+07 2.4004e+07 167764)
(1.04878e+08 -50401.9 -98539.8 8.45484e+07 2.39676e+07 166113)
(1.03381e+08 -254076 -771023 8.41822e+07 2.3601e+07 -616638)
(8.85308e+07 -456863 -4.19938e+06 7.81357e+07 2.18029e+07 -8.6036e+06)
(4.97677e+07 -936160 -2.49502e+07 7.38715e+07 2.10634e+07 1.24193e+07)
(5.26185e+07 917436 2.59831e+07 8.56338e+07 1.36103e+07 1.84523e+07)
(9.39602e+07 397612 4.41098e+06 9.09626e+07 1.38114e+07 -3.00229e+06)
(1.09652e+08 212797 855469 9.77961e+07 1.5162e+07 5.54207e+06)
(1.11313e+08 44531.5 108233 9.83889e+07 1.54556e+07 6.48932e+06)
(1.11488e+08 2783.6 20574.8 9.8456e+07 1.54505e+07 6.52601e+06)
(1.11515e+08 -2441.04 12139 9.84948e+07 1.55249e+07 6.52568e+06)
(1.11527e+08 -1465.5 16541.5 9.85052e+07 1.54336e+07 6.54769e+06)
(1.11498e+08 1150.29 9151.31 9.84572e+07 1.54721e+07 6.50641e+06)
(1.11517e+08 -83.8567 7052.53 9.84889e+07 1.54728e+07 6.53073e+06)
(1.11511e+08 -1140.78 10905.7 9.8467e+07 1.54667e+07 6.53083e+06)
(1.11516e+08 -1070.64 6356.21 9.84824e+07 1.54354e+07 6.53503e+06)
(1.11505e+08 2046.09 1899.7 9.84644e+07 1.54668e+07 6.5224e+06)
(1.11504e+08 2538.71 -1326.02 9.84666e+07 1.55172e+07 6.50963e+06)
(1.11494e+08 -626.159 1182.57 9.84423e+07 1.548e+07 6.50158e+06)
(1.11505e+08 -1104.25 405.623 9.84662e+07 1.54686e+07 6.5169e+06)
(1.11501e+08 1312.37 -2342.47 9.8456e+07 1.54693e+07 6.51143e+06)
(1.11492e+08 -170.289 -464.973 9.84405e+07 1.54793e+07 6.49852e+06)
(1.11505e+08 -1779.11 509.523 9.84662e+07 1.54684e+07 6.516e+06)
(1.11515e+08 -886.636 -1770.52 9.84718e+07 1.54659e+07 6.54083e+06)
(1.11501e+08 -53.5075 -3955.51 9.84602e+07 1.54682e+07 6.51161e+06)
(1.11503e+08 1418.09 -7533.39 9.84622e+07 1.54711e+07 6.51643e+06)
(1.11515e+08 972.518 -8963.62 9.84839e+07 1.54919e+07 6.52659e+06)
(1.11502e+08 -589.679 -12975.1 9.84625e+07 1.54711e+07 6.51162e+06)
(1.11512e+08 -512.329 -15546.6 9.84806e+07 1.54707e+07 6.5258e+06)
(1.11527e+08 1286.36 -10258 9.85082e+07 1.54876e+07 6.54734e+06)
(1.11476e+08 -2477.99 -18071.1 9.84372e+07 1.5481e+07 6.51011e+06)
(1.11317e+08 -44591 -109244 9.83949e+07 1.54463e+07 6.50016e+06)
(1.09646e+08 -211313 -857818 9.77818e+07 1.51691e+07 5.53907e+06)
(9.3964e+07 -398189 -4.41745e+06 9.09652e+07 1.38106e+07 -2.99924e+06)
(5.26307e+07 -916418 -2.59767e+07 8.56661e+07 1.36052e+07 1.84729e+07)
(5.4191e+07 721337 2.68851e+07 9.27736e+07 8.49446e+06 2.19391e+07)
(9.69926e+07 314263 4.61796e+06 9.87886e+07 8.44871e+06 -81956.3)
(1.13369e+08 165031 934180 1.06194e+08 9.38123e+06 8.93314e+06)
(1.15118e+08 38038.3 120022 1.06899e+08 9.654e+06 9.92519e+06)
(1.15314e+08 4065.83 24613.2 1.06983e+08 9.67508e+06 9.96719e+06)
(1.15314e+08 -1291.79 15275.8 1.0696e+08 9.71601e+06 9.93309e+06)
(1.15347e+08 -1993.11 12653.6 1.07015e+08 9.67781e+06 9.97477e+06)
(1.15325e+08 788.085 12724 1.06972e+08 9.67148e+06 9.94859e+06)
(1.15323e+08 -864.69 7017 1.06974e+08 9.70809e+06 9.94129e+06)
(1.15336e+08 -1483.64 2804.76 1.06986e+08 9.64482e+06 9.96645e+06)
(1.15343e+08 -849.328 5712.41 1.07004e+08 9.66554e+06 9.97205e+06)
(1.15344e+08 67.8176 5671.38 1.06995e+08 9.64362e+06 9.98759e+06)
(1.15326e+08 2496.54 -301.996 1.06966e+08 9.64941e+06 9.9556e+06)
(1.15322e+08 442.839 1800.68 1.06962e+08 9.67799e+06 9.9457e+06)
(1.15329e+08 -1312.03 486.095 1.06976e+08 9.66872e+06 9.95572e+06)
(1.15335e+08 959.237 -1934.23 1.06983e+08 9.64475e+06 9.96606e+06)
(1.15321e+08 419.844 -810.319 1.06961e+08 9.67717e+06 9.94431e+06)
(1.15328e+08 -2195.64 -242.447 1.06976e+08 9.66912e+06 9.95405e+06)
(1.15344e+08 -767.8 -2355.84 1.06993e+08 9.64366e+06 9.98617e+06)
(1.15325e+08 692.527 -3974.7 1.0697e+08 9.66832e+06 9.95144e+06)
(1.15333e+08 1528.8 -11266.3 1.06976e+08 9.66987e+06 9.96911e+06)
(1.15332e+08 975.377 -8337.67 1.06984e+08 9.67495e+06 9.95668e+06)
(1.15325e+08 -208.732 -4220.04 1.06973e+08 9.67078e+06 9.94926e+06)
(1.15339e+08 349.033 -16168.5 1.06992e+08 9.68394e+06 9.97415e+06)
(1.15335e+08 220.309 -14186.2 1.06993e+08 9.68502e+06 9.96387e+06)
(1.15299e+08 -4267.35 -18255.6 1.06952e+08 9.67587e+06 9.95285e+06)
(1.15138e+08 -37339.8 -125806 1.06922e+08 9.62363e+06 9.96708e+06)
(1.13357e+08 -163336 -935330 1.06178e+08 9.38583e+06 8.91322e+06)
(9.69971e+07 -313514 -4.61926e+06 9.87916e+07 8.44799e+06 -77559.6)
(5.4196e+07 -720850 -2.68782e+07 9.27846e+07 8.52823e+06 2.19419e+07)
(5.50566e+07 497772 2.75475e+07 9.71403e+07 5.28171e+06 2.38038e+07)
(9.86731e+07 231244 4.7886e+06 1.03575e+08 5.15418e+06 1.31204e+06)
(1.15527e+08 122712 993441 1.11399e+08 5.83622e+06 1.06147e+07)
(1.1735e+08 30078.4 141134 1.12174e+08 6.01907e+06 1.16654e+07)
(1.17551e+08 3506.91 26099.2 1.12246e+08 6.06747e+06 1.17067e+07)
(1.1756e+08 -515.273 10595.6 1.1223e+08 6.04553e+06 1.1682e+07)
(1.17586e+08 -1391.46 12544.3 1.12272e+08 6.06574e+06 1.17131e+07)
(1.17572e+08 -715.814 12502 1.1225e+08 6.03482e+06 1.16928e+07)
(1.17567e+08 -133.372 2996.74 1.12239e+08 6.03913e+06 1.16861e+07)
(1.17584e+08 -105.775 6443.53 1.12273e+08 6.03367e+06 1.17063e+07)
(1.17575e+08 -915.969 4968.94 1.12259e+08 6.06146e+06 1.16932e+07)
(1.17586e+08 -906.724 -1653.04 1.12272e+08 6.03248e+06 1.17126e+07)
(1.17589e+08 1487.82 4698.13 1.12274e+08 6.01603e+06 1.17172e+07)
(1.17571e+08 271.037 5545.8 1.12245e+08 6.03896e+06 1.16937e+07)
(1.17575e+08 -465.196 -3462.65 1.12252e+08 6.03292e+06 1.16981e+07)
(1.17586e+08 744.663 -1442.04 1.12272e+08 6.03325e+06 1.17103e+07)
(1.17571e+08 -199.686 2830 1.12245e+08 6.03823e+06 1.16929e+07)
(1.17575e+08 -1395.91 -5176.14 1.12253e+08 6.03334e+06 1.16972e+07)
(1.17583e+08 -998.127 -2610.81 1.12268e+08 6.03218e+06 1.17073e+07)
(1.17581e+08 -448.406 138.187 1.12261e+08 6.01083e+06 1.1709e+07)
(1.17585e+08 2483.28 -6986.74 1.12262e+08 6.01373e+06 1.1722e+07)
(1.17568e+08 1546.9 -7665.09 1.12246e+08 6.06867e+06 1.16838e+07)
(1.17571e+08 -679.005 -12185.8 1.1225e+08 6.03498e+06 1.1692e+07)
(1.17579e+08 1045.69 -16119 1.12261e+08 6.0397e+06 1.17029e+07)
(1.17579e+08 -703.735 -9750.66 1.12264e+08 6.04966e+06 1.17041e+07)
(1.17553e+08 -4543.1 -23531.6 1.12247e+08 6.0152e+06 1.17116e+07)
(1.1737e+08 -27931.3 -142471 1.12201e+08 6.01457e+06 1.17035e+07)
(1.15527e+08 -121623 -991352 1.11396e+08 5.83802e+06 1.06172e+07)
(9.86771e+07 -231005 -4.79004e+06 1.03577e+08 5.1531e+06 1.31789e+06)
(5.50561e+07 -498443 -2.75446e+07 9.71338e+07 5.2878e+06 2.37987e+07)
(5.55662e+07 316265 2.79857e+07 9.9853e+07 3.30116e+06 2.48517e+07)
(9.96496e+07 160564 4.92414e+06 1.06519e+08 3.17178e+06 2.02805e+06)
(1.16817e+08 88877.4 1.03872e+06 1.14634e+08 3.67029e+06 1.15175e+07)
(1.18703e+08 21533.1 147382 1.15481e+08 3.77912e+06 1.26163e+07)
(1.18909e+08 2814.92 27279.5 1.15546e+08 3.79863e+06 1.26581e+07)
(1.18928e+08 552.838 13735.1 1.15548e+08 3.79986e+06 1.26412e+07)
(1.1893e+08 -1003.05 11679.6 1.1555e+08 3.82337e+06 1.2636e+07)
(1.18936e+08 -1083.1 9054.75 1.1556e+08 3.79265e+06 1.26456e+07)
(1.18934e+08 800.75 6691.43 1.15554e+08 3.79599e+06 1.26426e+07)
(1.18938e+08 -140.424 6099.9 1.15565e+08 3.81806e+06 1.26443e+07)
(1.18935e+08 -1152.72 4244.85 1.15557e+08 3.79458e+06 1.26451e+07)
(1.18945e+08 719.684 -1526.63 1.15574e+08 3.79743e+06 1.26559e+07)
(1.18948e+08 602.78 1845.53 1.1558e+08 3.82001e+06 1.26573e+07)
(1.18937e+08 -1224.88 5391.1 1.15559e+08 3.7951e+06 1.26484e+07)
(1.18938e+08 482.989 49.646 1.15561e+08 3.79097e+06 1.26488e+07)
(1.18939e+08 612.795 -1031.87 1.15565e+08 3.81729e+06 1.26463e+07)
(1.18937e+08 -1008.9 -945.259 1.15558e+08 3.79444e+06 1.26469e+07)
(1.18938e+08 -681.781 -2093.09 1.15562e+08 3.7916e+06 1.26494e+07)
(1.18942e+08 -227.753 -6438.78 1.15569e+08 3.7967e+06 1.26528e+07)
(1.18949e+08 -644.207 -7427.94 1.15581e+08 3.79053e+06 1.26632e+07)
(1.18952e+08 1280.76 -2643.78 1.15586e+08 3.77275e+06 1.26685e+07)
(1.18931e+08 1197.31 -3197.42 1.15549e+08 3.79879e+06 1.26399e+07)
(1.18935e+08 465.986 -8711.24 1.1556e+08 3.79317e+06 1.26446e+07)
(1.18933e+08 1912.3 -15765 1.15557e+08 3.82219e+06 1.2639e+07)
(1.18936e+08 -904.639 -16833 1.15564e+08 3.82654e+06 1.2648e+07)
(1.1892e+08 -4774.42 -21800.5 1.1557e+08 3.79342e+06 1.2667e+07)
(1.18708e+08 -20760.4 -143949 1.1549e+08 3.78085e+06 1.26266e+07)
(1.16818e+08 -88172.3 -1.03964e+06 1.14634e+08 3.67055e+06 1.15235e+07)
(9.96609e+07 -160275 -4.92616e+06 1.06529e+08 3.1711e+06 2.05189e+06)
(5.55654e+07 -317002 -2.79844e+07 9.98483e+07 3.30586e+06 2.48469e+07)
(5.58852e+07 190864 2.82572e+07 1.01555e+08 2.07125e+06 2.54819e+07)
(1.00245e+08 105622 5.01553e+06 1.08338e+08 1.96855e+06 2.4444e+06)
(1.17621e+08 63006.8 1.07231e+06 1.16669e+08 2.29183e+06 1.20687e+07)
(1.19546e+08 15867 154800 1.17567e+08 2.38577e+06 1.31886e+07)
(1.19755e+08 2229.17 27709.7 1.17633e+08 2.40044e+06 1.32207e+07)
(1.19783e+08 480.102 13746.9 1.17642e+08 2.401e+06 1.32185e+07)
(1.19782e+08 -659.767 11207.8 1.17636e+08 2.40327e+06 1.32123e+07)
(1.19788e+08 -646.59 8976.42 1.17649e+08 2.39691e+06 1.32197e+07)
(1.19788e+08 450.095 6962.09 1.17647e+08 2.39865e+06 1.32195e+07)
(1.19792e+08 -121.234 6031.54 1.17649e+08 2.4007e+06 1.32309e+07)
(1.19789e+08 -303.023 99.0927 1.17648e+08 2.39895e+06 1.32217e+07)
(1.19797e+08 1218.47 2052.09 1.17662e+08 2.39988e+06 1.32311e+07)
(1.19787e+08 -2.69632 5761.28 1.17646e+08 2.42393e+06 1.32173e+07)
(1.1979e+08 -1763.68 1554.58 1.17649e+08 2.39856e+06 1.32229e+07)
(1.19788e+08 175.746 80.5152 1.17647e+08 2.39554e+06 1.3221e+07)
(1.19793e+08 629.106 -700.3 1.1765e+08 2.40012e+06 1.32306e+07)
(1.19789e+08 -621.572 -1221.41 1.17649e+08 2.39811e+06 1.32212e+07)
(1.1979e+08 -574.455 -5763.58 1.1765e+08 2.39596e+06 1.32223e+07)
(1.19807e+08 533.003 -2960.83 1.17674e+08 2.38133e+06 1.32519e+07)
(1.1979e+08 915.533 -4192.54 1.17651e+08 2.41816e+06 1.32215e+07)
(1.19798e+08 288.9 -5516.57 1.17668e+08 2.42017e+06 1.32289e+07)
(1.19787e+08 -370.708 -2698.96 1.17644e+08 2.40137e+06 1.32186e+07)
(1.19788e+08 315.806 -8779.71 1.17649e+08 2.39763e+06 1.32191e+07)
(1.19784e+08 1923.15 -11689.3 1.17639e+08 2.40252e+06 1.32149e+07)
(1.19779e+08 119.184 -13393.8 1.17635e+08 2.4278e+06 1.32132e+07)
(1.1976e+08 -4376.26 -30549.6 1.17644e+08 2.41997e+06 1.32255e+07)
(1.19557e+08 -16418.5 -154814 1.17584e+08 2.36694e+06 1.32079e+07)
(1.17623e+08 -62423.2 -1.06915e+06 1.1667e+08 2.29112e+06 1.20752e+07)
(1.00247e+08 -105149 -5.01646e+06 1.08339e+08 1.9671e+06 2.44905e+06)
(5.58849e+07 -191346 -2.82571e+07 1.01553e+08 2.07467e+06 2.54798e+07)
(5.60904e+07 111905 2.8419e+07 1.02624e+08 1.29905e+06 2.58743e+07)
(1.00618e+08 67200.8 5.07516e+06 1.09461e+08 1.22679e+06 2.70479e+06)
(1.1813e+08 43649.7 1.09641e+06 1.17956e+08 1.44126e+06 1.24194e+07)
(1.20077e+08 11362.1 160298 1.18884e+08 1.50755e+06 1.35511e+07)
(1.20297e+08 1683.34 28985 1.18955e+08 1.51869e+06 1.35943e+07)
(1.20322e+08 549.966 13899.5 1.18963e+08 1.51852e+06 1.35834e+07)
(1.20323e+08 -399.746 10900.3 1.18961e+08 1.52025e+06 1.35806e+07)
(1.20327e+08 -427.847 8680.42 1.18968e+08 1.51619e+06 1.35834e+07)
(1.20327e+08 135.079 6958.73 1.18967e+08 1.51717e+06 1.35834e+07)
(1.20331e+08 -105.858 5918.51 1.1897e+08 1.51947e+06 1.3594e+07)
(1.20328e+08 593.955 3481.28 1.18968e+08 1.51759e+06 1.35866e+07)
(1.20328e+08 755.326 2346.38 1.18968e+08 1.53944e+06 1.35839e+07)
(1.20325e+08 -648.286 2352.51 1.1896e+08 1.52216e+06 1.35828e+07)
(1.20329e+08 -1598.58 1079.39 1.18969e+08 1.51753e+06 1.35869e+07)
(1.20333e+08 19.6803 -44.7848 1.18975e+08 1.4972e+06 1.3593e+07)
(1.20327e+08 932.906 -413.562 1.18966e+08 1.51861e+06 1.3584e+07)
(1.20328e+08 -460.969 -1325.42 1.18969e+08 1.5174e+06 1.35851e+07)
(1.20327e+08 625.274 -6058.9 1.18966e+08 1.51565e+06 1.35843e+07)
(1.20337e+08 7.09436 -2834.17 1.18985e+08 1.53936e+06 1.35941e+07)
(1.20331e+08 126.414 -475.776 1.18971e+08 1.49967e+06 1.35921e+07)
(1.20324e+08 688.969 -5132.45 1.18962e+08 1.54016e+06 1.3579e+07)
(1.20327e+08 -749.44 -6049.42 1.18965e+08 1.51894e+06 1.35849e+07)
(1.20327e+08 224.676 -8680.9 1.18968e+08 1.517e+06 1.35834e+07)
(1.20324e+08 1115.49 -11130.6 1.18962e+08 1.52013e+06 1.3582e+07)
(1.20318e+08 -44.5655 -13529.7 1.18953e+08 1.52348e+06 1.35806e+07)
(1.20294e+08 -2207.62 -31890.6 1.18954e+08 1.51868e+06 1.35877e+07)
(1.20085e+08 -11996 -160410 1.18895e+08 1.52783e+06 1.35625e+07)
(1.18132e+08 -44103.7 -1.09301e+06 1.17957e+08 1.43989e+06 1.24248e+07)
(1.00618e+08 -66530.5 -5.07595e+06 1.09462e+08 1.22544e+06 2.70689e+06)
(5.60906e+07 -112115 -2.84198e+07 1.02626e+08 1.30156e+06 2.58741e+07)
(5.62265e+07 64849.9 2.85132e+07 1.03306e+08 790414 2.61285e+07)
(1.00852e+08 42110.9 5.11226e+06 1.10153e+08 762936 2.87066e+06)
(1.1845e+08 29499.2 1.11327e+06 1.18762e+08 901881 1.26416e+07)
(1.20412e+08 7590.91 164200 1.19711e+08 948046 1.3782e+07)
(1.20636e+08 1183.86 29004.6 1.1979e+08 937120 1.38229e+07)
(1.20662e+08 900.775 14205.2 1.19794e+08 955532 1.38157e+07)
(1.20665e+08 -197.056 10694.9 1.19794e+08 956449 1.38143e+07)
(1.20666e+08 -270.232 8425.2 1.19798e+08 954345 1.38148e+07)
(1.20666e+08 51.3138 6740.46 1.19797e+08 955199 1.38144e+07)
(1.20666e+08 -126.473 5704.24 1.19797e+08 956397 1.38148e+07)
(1.20668e+08 173.684 3709.92 1.19798e+08 955085 1.38182e+07)
(1.20664e+08 506.593 2698.88 1.19788e+08 957523 1.38139e+07)
(1.20667e+08 -162.102 2318.72 1.19794e+08 958398 1.38183e+07)
(1.20669e+08 -685.009 -2839.44 1.19799e+08 955537 1.38188e+07)
(1.20677e+08 60.3852 -47.4939 1.19813e+08 953965 1.38283e+07)
(1.20668e+08 336.119 3301.14 1.19798e+08 956650 1.38168e+07)
(1.20668e+08 -751.467 -1450.11 1.19799e+08 955723 1.38176e+07)
(1.20672e+08 1043.82 -2616.77 1.19805e+08 936710 1.38231e+07)
(1.20666e+08 730.347 -6150.26 1.19796e+08 978362 1.38143e+07)
(1.20676e+08 -1075.69 -3717.37 1.19811e+08 955784 1.38288e+07)
(1.20668e+08 21.5741 -1492.12 1.19796e+08 941156 1.38199e+07)
(1.20666e+08 36.5814 -6226.06 1.19795e+08 955473 1.38175e+07)
(1.20667e+08 233.39 -8570.76 1.19798e+08 955218 1.38154e+07)
(1.20665e+08 616.761 -10706.3 1.19795e+08 956652 1.38155e+07)
(1.20661e+08 -173.963 -13563.7 1.1979e+08 958643 1.38164e+07)
(1.20634e+08 -1634.98 -29377.7 1.19785e+08 955633 1.38213e+07)
(1.20414e+08 -8695.11 -164805 1.1971e+08 950437 1.37889e+07)
(1.18451e+08 -29777.5 -1.11334e+06 1.18759e+08 900268 1.2645e+07)
(1.00852e+08 -40803.3 -5.11313e+06 1.10153e+08 761969 2.87078e+06)
(5.62231e+07 -64572.2 -2.85148e+07 1.03299e+08 811790 2.61203e+07)
(5.6314e+07 37261.1 2.85649e+07 1.03733e+08 498129 2.62865e+07)
(1.00997e+08 24972.7 5.13972e+06 1.10575e+08 468186 2.97365e+06)
(1.18648e+08 19323.3 1.12467e+06 1.1926e+08 556263 1.27798e+07)
(1.20621e+08 5636.53 163696 1.20226e+08 587530 1.39273e+07)
(1.20852e+08 755.142 29366.4 1.20315e+08 592148 1.39731e+07)
(1.20873e+08 240.207 17775.1 1.2031e+08 591765 1.39605e+07)
(1.20877e+08 -14.7987 10595.9 1.20312e+08 592578 1.39599e+07)
(1.20878e+08 -137.892 8271.94 1.20314e+08 591664 1.39596e+07)
(1.20878e+08 101.316 6732.03 1.20314e+08 592472 1.39595e+07)
(1.20878e+08 -184.899 5587.8 1.20314e+08 593591 1.39607e+07)
(1.20879e+08 -437.957 3794.86 1.20313e+08 591669 1.39627e+07)
(1.20882e+08 406.622 2937.61 1.20317e+08 576227 1.39683e+07)
(1.2088e+08 394.966 2227.79 1.20314e+08 593866 1.39646e+07)
(1.2088e+08 26.8007 339.317 1.20316e+08 592661 1.39638e+07)
(1.2088e+08 65.8075 78.3852 1.20314e+08 610071 1.39631e+07)
(1.2088e+08 -154.455 108.429 1.20315e+08 593480 1.39639e+07)
(1.2088e+08 -81.5399 -5065.38 1.20316e+08 593112 1.39641e+07)
(1.20888e+08 587.226 -2416.21 1.2033e+08 592532 1.39729e+07)
(1.20876e+08 521.838 790.787 1.20308e+08 596833 1.39599e+07)
(1.2088e+08 -265.212 -7187.42 1.20314e+08 611234 1.39637e+07)
(1.20887e+08 -693.927 -4895.39 1.20326e+08 595275 1.39733e+07)
(1.20877e+08 -333.981 -2921.04 1.2031e+08 591779 1.39617e+07)
(1.20878e+08 322.248 -8419.84 1.20315e+08 592647 1.39609e+07)
(1.20878e+08 305.665 -10499.2 1.20312e+08 592812 1.39612e+07)
(1.20874e+08 -334.356 -13673.3 1.2031e+08 593778 1.39631e+07)
(1.20844e+08 -1364.79 -33397.3 1.203e+08 591548 1.39663e+07)
(1.20631e+08 -6251.72 -167991 1.20239e+08 571397 1.3945e+07)
(1.18654e+08 -19353.5 -1.12146e+06 1.19267e+08 537383 1.27903e+07)
(1.00997e+08 -24029.7 -5.13544e+06 1.10576e+08 467926 2.97412e+06)
(5.63077e+07 -36664.5 -2.85693e+07 1.03718e+08 498039 2.62732e+07)
(5.636e+07 20905.5 2.85996e+07 1.0397e+08 314650 2.6366e+07)
(1.01085e+08 13928.4 5.14767e+06 1.10829e+08 276023 3.03687e+06)
(1.18769e+08 12007.4 1.13209e+06 1.19561e+08 329728 1.28638e+07)
(1.20747e+08 4017.1 169298 1.20538e+08 349812 1.40159e+07)
(1.20976e+08 195.311 30027.8 1.20618e+08 369735 1.40613e+07)
(1.21001e+08 -160.475 14336.6 1.20622e+08 351446 1.40477e+07)
(1.21006e+08 226.649 10617 1.20626e+08 352327 1.40483e+07)
(1.21007e+08 -42.467 8208.85 1.20628e+08 352118 1.40476e+07)
(1.21007e+08 27.0723 6821.09 1.20627e+08 352762 1.40478e+07)
(1.21011e+08 -345.969 5529.57 1.20631e+08 353450 1.40573e+07)
(1.21007e+08 115.052 311.232 1.20625e+08 351676 1.40495e+07)
(1.21017e+08 469.865 3149.93 1.20642e+08 353635 1.40627e+07)
(1.21009e+08 -97.2457 5618.98 1.20629e+08 353497 1.40526e+07)
(1.21009e+08 -577.858 237.611 1.20629e+08 352936 1.40518e+07)
(1.2101e+08 -76.1796 189.904 1.20628e+08 335339 1.40543e+07)
(1.21012e+08 489.911 250.887 1.20631e+08 352973 1.40606e+07)
(1.21013e+08 727.931 -1649.05 1.20633e+08 353388 1.40605e+07)
(1.2101e+08 401.876 -2205.97 1.20632e+08 371511 1.40525e+07)
(1.21007e+08 -833.608 -2602.35 1.20625e+08 355625 1.40516e+07)
(1.2101e+08 477.937 -3824.94 1.20629e+08 336303 1.40551e+07)
(1.2101e+08 -422.506 -4999.42 1.20631e+08 373059 1.40545e+07)
(1.21011e+08 -833.596 -6458.55 1.20632e+08 334394 1.40558e+07)
(1.21008e+08 601.618 -8339.69 1.20628e+08 353182 1.40502e+07)
(1.21006e+08 113.715 -10457.2 1.20626e+08 352347 1.40494e+07)
(1.21003e+08 -647.333 -13780.3 1.20626e+08 353078 1.40519e+07)
(1.20978e+08 14.1656 -33769.2 1.20623e+08 334076 1.40614e+07)
(1.20758e+08 -3045.08 -173794 1.20554e+08 368720 1.40313e+07)
(1.1878e+08 -12922.3 -1.129e+06 1.19578e+08 329183 1.2879e+07)
(1.01086e+08 -14215.5 -5.14476e+06 1.10829e+08 275830 3.0387e+06)
(5.63593e+07 -20595.1 -2.85979e+07 1.03971e+08 295120 2.63636e+07)
(5.63895e+07 10787.4 2.8617e+07 1.04113e+08 135676 2.64187e+07)
(1.01135e+08 7951.27 5.15512e+06 1.1097e+08 144438 3.07053e+06)
(1.18836e+08 6463.62 1.13658e+06 1.19731e+08 173397 1.29112e+07)
(1.20823e+08 1382.03 171217 1.20718e+08 184282 1.40746e+07)
(1.21044e+08 -333.46 29430.3 1.2079e+08 167443 1.41022e+07)
(1.21079e+08 716.691 14556.1 1.20809e+08 167466 1.41035e+07)
(1.21079e+08 634.74 10718.6 1.20805e+08 185556 1.40986e+07)
(1.21079e+08 12.8792 8200.56 1.20805e+08 185691 1.40974e+07)
(1.2108e+08 -61.7408 6676.21 1.20805e+08 186134 1.4098e+07)
(1.2108e+08 -689.229 5229.24 1.20805e+08 185686 1.40985e+07)
(1.21084e+08 712.472 3966.64 1.20811e+08 167901 1.4105e+07)
(1.21084e+08 755.668 3368.36 1.20809e+08 204651 1.41052e+07)
(1.21081e+08 -610.74 2122 1.20806e+08 186884 1.41027e+07)
(1.21082e+08 -142.248 -3322.94 1.20807e+08 186347 1.41019e+07)
(1.21088e+08 -251.742 -41.5539 1.20818e+08 186030 1.41103e+07)
(1.21081e+08 38.721 3717.21 1.20805e+08 184685 1.41005e+07)
(1.21081e+08 545.64 -1295.17 1.20806e+08 186150 1.41015e+07)
(1.21079e+08 237.634 -1863.21 1.20801e+08 187405 1.40987e+07)
(1.21085e+08 -81.6403 -5994.82 1.20808e+08 187148 1.41106e+07)
(1.21089e+08 223.449 -3762.76 1.20819e+08 187165 1.41118e+07)
(1.21084e+08 -312.469 -5261.52 1.20805e+08 187965 1.41096e+07)
(1.21088e+08 -410.151 -6596.25 1.20819e+08 185306 1.41105e+07)
(1.21084e+08 3.7881 -5155.38 1.2081e+08 186344 1.41085e+07)
(1.21078e+08 86.9408 -10496.3 1.20803e+08 185053 1.40985e+07)
(1.21077e+08 1.37495 -17297.5 1.20805e+08 186181 1.41024e+07)
(1.21056e+08 497.239 -30507.6 1.20811e+08 185073 1.41172e+07)
(1.2082e+08 -1232.61 -167861 1.20713e+08 203504 1.40707e+07)
(1.18841e+08 -7683.2 -1.13712e+06 1.19737e+08 191542 1.29175e+07)
(1.01134e+08 -8014.64 -5.1552e+06 1.10969e+08 143390 3.072e+06)
(5.63884e+07 -10539.3 -2.86172e+07 1.04113e+08 155811 2.64144e+07)
(5.64073e+07 3364.74 2.86217e+07 1.04191e+08 48808.8 2.64511e+07)
(1.01156e+08 2169.22 5.16361e+06 1.11034e+08 44752.4 3.08427e+06)
(1.18867e+08 1924.26 1.1385e+06 1.19807e+08 53944.9 1.29322e+07)
(1.20851e+08 105.809 167438 1.20794e+08 56609.6 1.40882e+07)
(1.21089e+08 248.244 26082.2 1.20893e+08 40359 1.41378e+07)
(1.21117e+08 495.316 18069.1 1.209e+08 57617.6 1.41322e+07)
(1.21112e+08 11.7068 14280.9 1.20886e+08 57436.2 1.41214e+07)
(1.21112e+08 30.0819 8222.42 1.20886e+08 57713.8 1.412e+07)
(1.21113e+08 -21.586 6589.91 1.20886e+08 57877.9 1.41208e+07)
(1.21113e+08 -45.134 1662.06 1.20886e+08 57697.8 1.41207e+07)
(1.21122e+08 183.962 4109.82 1.20901e+08 57796.5 1.41334e+07)
(1.21112e+08 -30.3855 7003.91 1.20881e+08 58353.9 1.41231e+07)
(1.21118e+08 -139.423 2090.91 1.20889e+08 57866.3 1.41335e+07)
(1.21115e+08 439.957 -62.9118 1.20888e+08 58137 1.41242e+07)
(1.21115e+08 -367.8 -285.028 1.20886e+08 75443 1.41243e+07)
(1.21112e+08 -441.506 395.616 1.20883e+08 56470 1.41203e+07)
(1.21118e+08 435.675 -956.236 1.2089e+08 57948.1 1.41316e+07)
(1.21113e+08 143.684 -1944.79 1.20884e+08 58477.9 1.41227e+07)
(1.21114e+08 643.792 -2636.44 1.20886e+08 57658.4 1.41239e+07)
(1.21116e+08 81.5429 -3663.1 1.2089e+08 76520.2 1.41274e+07)
(1.21113e+08 -357.505 -5296.59 1.20884e+08 58573.8 1.41241e+07)
(1.21114e+08 -180.146 -6695.59 1.20886e+08 75118.1 1.41242e+07)
(1.21113e+08 -591.244 -8297.58 1.20887e+08 57597.1 1.41225e+07)
(1.2111e+08 76.8767 -10319.4 1.20882e+08 56627.2 1.41198e+07)
(1.2111e+08 653.812 -13863.6 1.20886e+08 57837.7 1.4126e+07)
(1.21081e+08 106.183 -30520.1 1.20877e+08 75087.1 1.41311e+07)
(1.20849e+08 -720.421 -171756 1.20786e+08 58098.3 1.40888e+07)
(1.18867e+08 -3058.22 -1.13969e+06 1.19805e+08 55112.4 1.29342e+07)