/*--------------------------------*- C++ -*----------------------------------*\
| =========                 |                                                 |
| \\      /  F ield         | OpenFOAM: The Open Source CFD Toolbox           |
|  \\    /   O peration     | Version:  2106                                  |
|   \\  /    A nd           | Website:  www.openfoam.com                      |
|    \\/     M anipulation  |                                                 |
\*---------------------------------------------------------------------------*/
FoamFile
{
    version     2.0;
    format      ascii;
    arch        "LSB;label=32;scalar=64";
    class       volTensorField;
    location    "921";
    object      testEpsilon;
}
// * * * * * * * * * * * * * * * * * * * * * * * * * * * * * * * * * * * * * //

dimensions      [0 0 0 0 0 0 0];

internalField   nonuniform List<tensor> 
9000
(
(-0.0855804 0.00384544 -0.105451 -0.0043724 -0.147115 -0.257495 0.201774 0.380308 -0.0253748)
(-0.0167732 0.00368767 -0.00285503 -0.00261199 -0.156475 -0.270369 0.0216223 0.400625 -0.0697521)
(-0.00192933 0.00248209 0.00204132 -0.00181058 -0.166386 -0.287059 0.00308953 0.425372 -0.0595165)
(-0.000321093 0.000467187 0.000324731 -0.000365915 -0.167998 -0.290831 0.000577804 0.430921 -0.0573944)
(-5.53377e-05 -3.88314e-05 -2.84165e-05 2.29335e-05 -0.168079 -0.290942 0.000107138 0.431086 -0.0574068)
(-3.86425e-06 -2.32701e-05 -1.51757e-05 1.91511e-05 -0.167897 -0.290164 4.97895e-05 0.429884 -0.0576812)
(-1.28716e-06 -1.32585e-06 -3.17149e-07 1.25115e-06 -0.168021 -0.29072 5.08631e-05 0.430767 -0.0575668)
(7.10254e-08 -3.10732e-05 -1.88388e-05 1.92383e-05 -0.167889 -0.290151 3.40467e-05 0.429873 -0.0576818)
(-9.11149e-07 3.98554e-05 2.54083e-05 -2.69558e-05 -0.167887 -0.290141 3.69906e-05 0.429857 -0.0576892)
(-6.5484e-06 1.73674e-05 8.74043e-06 -4.11163e-06 -0.168061 -0.290829 -2.37551e-05 0.430919 -0.057471)
(2.42956e-06 -6.45784e-05 -4.46492e-05 5.20448e-05 -0.167943 -0.290389 -5.34966e-05 0.430245 -0.0575981)
(7.86208e-06 1.75505e-05 1.37608e-05 -1.86303e-05 -0.167761 -0.289678 6.57075e-05 0.429153 -0.0578377)
(-4.59172e-06 6.0075e-05 4.13546e-05 -4.91708e-05 -0.16805 -0.290775 7.65253e-05 0.430841 -0.0574993)
(-4.35854e-06 -1.20321e-05 -1.08388e-05 1.369e-05 -0.168067 -0.290781 -4.95245e-05 0.430865 -0.0574879)
(3.42405e-06 6.12941e-06 3.96757e-06 -4.4034e-06 -0.167955 -0.290435 -2.50846e-07 0.430309 -0.0575821)
(-2.63358e-06 1.29623e-05 1.08353e-05 -1.53347e-05 -0.168064 -0.290838 5.01179e-05 0.430932 -0.057473)
(-2.17118e-06 -1.85045e-05 -1.44439e-05 1.91832e-05 -0.168066 -0.290777 -5.82004e-05 0.430859 -0.0574927)
(2.55184e-09 1.45929e-06 1.5403e-06 5.38615e-08 -0.167958 -0.290445 -7.80386e-06 0.430323 -0.0575732)
(-2.16557e-06 -4.47203e-05 -2.81981e-05 3.1391e-05 -0.168053 -0.290796 -2.1431e-05 0.430874 -0.0574873)
(4.66076e-06 -4.11008e-05 -2.65589e-05 2.83531e-05 -0.167773 -0.289723 -2.67285e-05 0.429217 -0.0578017)
(2.77295e-06 5.96569e-05 4.05621e-05 -4.80141e-05 -0.167874 -0.290095 3.89738e-05 0.429797 -0.0577146)
(-5.67649e-06 4.60869e-05 2.95723e-05 -3.30071e-05 -0.16806 -0.290813 -1.58035e-05 0.430891 -0.0574852)
(-3.46822e-06 -3.46133e-05 -2.1972e-05 2.28573e-05 -0.168065 -0.290843 -4.18138e-05 0.430939 -0.0574673)
(1.25864e-07 -7.11743e-06 -4.13187e-06 5.49849e-06 -0.167901 -0.290181 -4.8521e-05 0.429912 -0.0576678)
(-7.73819e-06 1.21173e-05 6.88743e-06 -8.79876e-06 -0.168053 -0.290785 -5.46914e-05 0.430852 -0.057494)
(-5.38708e-05 -2.20992e-05 -1.34263e-05 2.59786e-05 -0.167913 -0.290279 -0.000172244 0.430061 -0.0576038)
(-0.000314524 -0.000438686 -0.000306306 0.000347307 -0.167868 -0.29035 -0.000572926 0.430191 -0.0575373)
(-0.00192992 -0.00245485 -0.00202181 0.00178378 -0.166381 -0.286977 -0.00303355 0.425266 -0.0595432)
(-0.016776 -0.00367976 0.00286021 0.00260598 -0.156473 -0.270362 -0.0216241 0.400617 -0.0697537)
(-0.0855797 -0.00384738 0.105452 0.0043742 -0.147115 -0.257482 -0.201777 0.380286 -0.0253803)
(-0.0724033 0.00189547 -0.10317 -0.00191798 -0.0980712 -0.0790743 0.196127 0.215438 -0.128992)
(-0.0163972 0.0021634 -0.00426102 -0.000798308 -0.103197 -0.0826093 0.0203099 0.226105 -0.175005)
(-0.00180222 0.00153327 0.00097772 -0.000667907 -0.109234 -0.0876371 0.00210638 0.240105 -0.17132)
(-0.000206434 0.000315968 0.000119162 -0.000174032 -0.1104 -0.0888302 0.000338994 0.243614 -0.170637)
(-2.73444e-05 -1.72353e-05 1.20057e-06 4.59225e-06 -0.110423 -0.0888678 6.2647e-05 0.243718 -0.170683)
(-4.44671e-06 -1.66164e-05 -2.59513e-06 1.00824e-05 -0.110203 -0.0886818 6.45446e-05 0.243398 -0.170699)
(-2.05155e-06 3.19282e-07 1.22192e-06 6.92604e-07 -0.11037 -0.0887947 4.9972e-05 0.243533 -0.17071)
(-1.45274e-06 -1.00558e-05 5.91526e-06 6.62658e-06 -0.110179 -0.0886803 -1.15138e-05 0.243406 -0.170696)
(-7.37016e-07 1.50716e-05 -5.58426e-06 -1.09465e-05 -0.11018 -0.0886789 7.38797e-05 0.24339 -0.170702)
(-1.19202e-06 1.06973e-05 -1.97871e-06 3.7463e-06 -0.110394 -0.08883 6.95977e-05 0.243594 -0.170707)
(-4.55716e-07 -2.11086e-05 8.82478e-06 2.77521e-05 -0.110296 -0.0887373 -3.17539e-05 0.243851 -0.170677)
(8.48851e-08 3.80239e-07 -3.78012e-06 -1.2152e-05 -0.110076 -0.0885738 1.24856e-05 0.243617 -0.170667)
(-1.08608e-06 1.47391e-05 -7.98334e-06 -2.87121e-05 -0.110393 -0.0888017 5.55511e-05 0.243531 -0.17071)
(-7.99951e-07 3.5316e-06 3.8588e-06 9.08718e-06 -0.11037 -0.0888006 -2.5308e-07 0.243259 -0.170691)
(1.18659e-07 7.62652e-06 -7.72589e-07 -1.21103e-07 -0.110309 -0.0887535 -2.15746e-06 0.243894 -0.17068)
(-3.79707e-07 -5.26872e-06 -2.48278e-06 -1.27599e-05 -0.110397 -0.0888342 -1.66096e-06 0.243607 -0.17071)
(-2.43944e-07 -2.08901e-06 3.29512e-06 1.24202e-05 -0.110368 -0.0887999 -4.97084e-06 0.243257 -0.170693)
(-1.77658e-07 4.31262e-06 -9.06125e-07 3.29706e-06 -0.110313 -0.0887566 -6.08633e-06 0.2439 -0.170675)
(-7.61757e-07 -1.81935e-05 5.52402e-06 1.38932e-05 -0.110384 -0.0888176 -5.4845e-05 0.243562 -0.17071)
(-7.81933e-07 -1.58921e-05 6.05516e-06 1.20481e-05 -0.110083 -0.0885905 -6.19159e-05 0.243675 -0.170665)
(-7.79902e-07 1.66424e-05 -9.95136e-06 -2.49516e-05 -0.110164 -0.0886584 1.94535e-05 0.243345 -0.170691)
(-9.29737e-07 1.92694e-05 -5.85523e-06 -1.54201e-05 -0.110405 -0.0888198 1.59437e-05 0.243564 -0.170713)
(-1.08854e-06 -1.1068e-05 6.4884e-06 8.90088e-06 -0.110397 -0.0888355 -8.14597e-05 0.24361 -0.170708)
(-1.53368e-06 -6.1244e-06 -1.21033e-06 2.6485e-06 -0.110196 -0.088695 -4.42112e-05 0.243427 -0.170693)
(-5.13693e-06 1.02628e-05 2.10446e-06 -3.41972e-06 -0.110398 -0.0888117 -5.95548e-05 0.243536 -0.17071)
(-2.77039e-05 -1.5432e-06 7.44017e-06 2.14025e-05 -0.110214 -0.0887217 -0.000108348 0.243538 -0.170668)
(-0.000206189 -0.000311853 -0.000124872 0.000164927 -0.110289 -0.0887214 -0.000292552 0.243831 -0.170606)
(-0.00180236 -0.00152547 -0.000980848 0.000650159 -0.109198 -0.0875937 -0.00210714 0.239741 -0.171319)
(-0.0163972 -0.0021553 0.00426067 0.000796882 -0.103195 -0.0826061 -0.0203147 0.226098 -0.175003)
(-0.0724021 -0.00189799 0.10317 0.00192044 -0.0980748 -0.0790737 -0.196128 0.215418 -0.128992)
(-0.0763045 -0.00107794 -0.104035 0.00342341 -0.0575535 -0.00938264 0.197526 0.125711 -0.153406)
(-0.0165231 0.0014551 -0.00456759 0.000287834 -0.0602169 -0.0111291 0.020296 0.132422 -0.201966)
(-0.00180447 0.00104131 0.000797138 -2.23752e-06 -0.0633661 -0.0116301 0.00193764 0.141065 -0.199928)
(-0.000186593 0.000229427 7.85732e-05 -3.29617e-05 -0.0641023 -0.011795 0.000259038 0.143584 -0.199627)
(-1.85147e-05 7.45781e-07 1.26643e-06 -2.50854e-06 -0.0641043 -0.011806 0.000110017 0.143681 -0.199687)
(-4.64417e-06 -1.26395e-05 -5.40448e-07 2.31999e-06 -0.0639985 -0.0118167 6.93485e-05 0.143911 -0.199647)
(-1.97831e-06 3.46502e-06 -1.38358e-08 8.92557e-07 -0.0640744 -0.0117936 4.94659e-05 0.143546 -0.199696)
(-2.25679e-06 6.91669e-06 4.31402e-06 2.04301e-06 -0.063992 -0.0118335 3.95074e-05 0.144122 -0.199667)
(-1.4872e-06 -3.2921e-06 -4.54036e-06 -2.43197e-06 -0.0640004 -0.0118255 2.02775e-05 0.1441 -0.199671)
(1.19132e-06 -5.96355e-06 -2.94629e-06 3.97708e-07 -0.0640767 -0.0117965 2.15241e-05 0.143591 -0.199701)
(-7.5011e-07 -8.45518e-07 6.59927e-06 7.27906e-06 -0.0640651 -0.011813 3.04176e-05 0.143557 -0.199687)
(-3.43076e-06 -1.73573e-06 8.85849e-07 -3.66594e-06 -0.0639771 -0.0118413 8.64998e-06 0.144078 -0.199649)
(-3.4388e-07 1.24241e-06 -4.0026e-06 -8.125e-06 -0.0640561 -0.0117851 -3.58398e-05 0.143359 -0.199657)
(1.35965e-06 4.79986e-06 -1.18934e-06 2.89449e-06 -0.064008 -0.0117995 2.37783e-06 0.143599 -0.199683)
(-9.45376e-07 6.39061e-07 -2.75866e-06 4.06645e-07 -0.06407 -0.0118126 2.68988e-05 0.143589 -0.199691)
(-1.2532e-07 1.02795e-06 1.55233e-06 -3.15799e-06 -0.0640784 -0.0117989 -3.56136e-05 0.143605 -0.199703)
(1.04022e-06 -1.6308e-06 1.07563e-06 2.55773e-06 -0.0640076 -0.0118003 -7.52273e-07 0.143598 -0.199686)
(2.97143e-07 -1.70392e-06 -1.99474e-06 2.27233e-06 -0.0640722 -0.0118129 2.50285e-05 0.143588 -0.199691)
(-4.15355e-07 1.18145e-06 5.02193e-06 3.48635e-06 -0.0640704 -0.0117907 5.43937e-07 0.143565 -0.1997)
(-3.1082e-06 2.95473e-06 5.27038e-06 2.65392e-06 -0.0639811 -0.0118471 -7.10194e-06 0.144094 -0.199653)
(-2.72068e-06 -4.64973e-06 -5.29737e-06 -6.38467e-06 -0.0639824 -0.0118286 -3.75001e-05 0.144105 -0.199657)
(1.09401e-06 -5.52257e-07 -5.85327e-06 -4.52998e-06 -0.0640675 -0.0117854 -4.07059e-05 0.143378 -0.199683)
(1.45495e-07 7.1659e-06 2.9843e-06 3.03957e-06 -0.0640769 -0.0117985 -2.867e-05 0.143607 -0.199702)
(-2.33826e-06 -7.32661e-06 6.41571e-07 -6.10875e-07 -0.0640112 -0.0118322 -4.22417e-05 0.144121 -0.199667)
(-3.98738e-06 8.47188e-06 1.54691e-06 -3.83569e-07 -0.0640718 -0.0117828 -6.05606e-05 0.143356 -0.199676)
(-2.02015e-05 -2.68742e-07 4.62663e-06 9.53327e-06 -0.064024 -0.0118382 -9.58704e-05 0.144209 -0.199649)
(-0.000188773 -0.000235358 -8.07017e-05 3.06226e-05 -0.0640793 -0.0118068 -0.000295825 0.143521 -0.199609)
(-0.00180353 -0.00103603 -0.000798753 -2.50445e-06 -0.063293 -0.0116222 -0.00194967 0.141018 -0.199916)
(-0.0165219 -0.00145519 0.00456421 -0.000288818 -0.0602148 -0.0111279 -0.0202715 0.132417 -0.201963)
(-0.0763017 0.00107326 0.104033 -0.0034183 -0.0575627 -0.00937921 -0.197523 0.125682 -0.153408)
(-0.0818775 -0.00282236 -0.107651 0.00645324 -0.0351662 0.0054396 0.204386 0.0763769 -0.154296)
(-0.0170823 0.00100087 -0.00471052 0.00075969 -0.0372327 0.00345645 0.0209842 0.0810761 -0.205378)
(-0.00186638 0.000756185 0.000844537 0.00023376 -0.0391078 0.00393202 0.00212961 0.0872843 -0.203493)
(-0.000206488 0.000168331 8.39926e-05 3.25989e-05 -0.0396308 0.00401791 0.000294798 0.0889556 -0.203202)
(-2.02881e-05 3.53354e-06 -3.13402e-06 -5.05889e-06 -0.0396401 0.00401801 8.47676e-05 0.0890484 -0.203268)
(-3.76649e-06 -1.06427e-05 -1.2685e-07 -2.87581e-06 -0.0395809 0.00398835 7.00352e-05 0.0888713 -0.203236)
(-2.10695e-06 1.6156e-06 -2.14331e-06 9.10792e-07 -0.0396051 0.0040156 6.85342e-05 0.0888191 -0.203264)
(-2.11765e-06 4.74934e-06 -4.63149e-07 -1.67564e-06 -0.0396222 0.00398591 3.82284e-05 0.0890174 -0.203286)
(-1.06608e-06 -1.86167e-06 1.8244e-06 2.84996e-06 -0.0396165 0.00399153 2.30409e-05 0.0888646 -0.203248)
(7.50191e-07 -2.23512e-06 5.25842e-07 2.89292e-06 -0.0396145 0.0040164 2.28407e-05 0.088986 -0.20328)
(-1.26845e-06 -1.19625e-06 -1.42574e-07 -2.79081e-06 -0.0396095 0.00401099 2.96256e-05 0.0889644 -0.203277)
(-2.99593e-06 2.16823e-06 1.7967e-06 -6.66501e-07 -0.039614 0.00398054 -1.08164e-05 0.0889772 -0.203254)
(2.26002e-07 8.56352e-06 3.89595e-07 3.33007e-06 -0.0395689 0.00400158 -7.47214e-06 0.0890022 -0.20326)
(9.06379e-07 7.47884e-07 -1.64464e-06 1.32478e-06 -0.0395899 0.00399302 2.25585e-05 0.0893403 -0.203286)
(-1.09184e-06 -6.45152e-06 -6.55687e-07 -5.00175e-07 -0.0396074 0.00401095 -8.37197e-07 0.0889928 -0.203279)
(5.05101e-08 7.21201e-06 -2.70561e-08 9.92511e-07 -0.0396158 0.00401345 -7.63232e-06 0.0890015 -0.203284)
(8.42119e-07 -8.54413e-07 4.96942e-07 -3.5746e-07 -0.0395907 0.00399296 -1.01412e-06 0.0893378 -0.203289)
(8.06516e-09 -8.24357e-06 1.02849e-06 -2.21897e-07 -0.0396076 0.00401079 -1.65961e-06 0.0889924 -0.20328)
(-6.85439e-07 2.10236e-08 -1.31759e-06 -3.15384e-06 -0.0396114 0.00401891 -1.63621e-06 0.0889652 -0.203258)
(-2.75614e-06 1.70329e-06 -1.52903e-06 -3.20089e-06 -0.0396158 0.00398027 -9.94703e-06 0.0889994 -0.20328)
(-2.21668e-06 -6.30613e-07 2.37329e-06 2.87494e-06 -0.0396177 0.00398456 -5.49235e-05 0.0889983 -0.203261)
(9.55112e-07 3.69722e-07 1.53426e-07 2.79614e-06 -0.0395798 0.0040127 -3.96139e-05 0.0889795 -0.203252)
(-3.04722e-07 1.9735e-07 -2.86899e-06 -2.70328e-06 -0.0396122 0.00401451 -1.05667e-05 0.0890058 -0.203284)
(-2.21831e-06 -5.09062e-06 1.9384e-06 -2.58138e-06 -0.0396215 0.00399129 -6.23078e-05 0.0888734 -0.20327)
(-3.1081e-06 7.68598e-06 9.07481e-07 2.03426e-06 -0.0395743 0.00401281 -6.08511e-05 0.0888273 -0.203228)
(-2.15027e-05 -3.05367e-06 2.64282e-06 3.43407e-06 -0.0396476 0.00398905 -7.15292e-05 0.0890746 -0.203264)
(-0.000208597 -0.000165646 -8.16729e-05 -2.97623e-05 -0.0396171 0.00401103 -0.000300366 0.0889113 -0.203192)
(-0.00186624 -0.000752558 -0.000845072 -0.000232497 -0.0390838 0.00391272 -0.00214418 0.0875883 -0.203466)
(-0.0170804 -0.00100924 0.00470927 -0.000762018 -0.0372312 0.00345674 -0.0209903 0.0810729 -0.205375)
(-0.0818818 0.00281384 0.107647 -0.00644333 -0.0351567 0.00544507 -0.204379 0.0762178 -0.154282)
(-0.086058 -0.00311434 -0.112076 0.00667124 -0.0220578 0.00482863 0.212812 0.0479383 -0.152289)
(-0.017767 0.000666789 -0.0048691 0.000874754 -0.023578 0.00285457 0.0219705 0.0506922 -0.205729)
(-0.00194989 0.000561687 0.00090943 0.000263327 -0.0249318 0.00331624 0.00240722 0.0554667 -0.203766)
(-0.000234357 0.000122966 9.57695e-05 4.96828e-05 -0.025287 0.0034042 0.000323848 0.056517 -0.203434)
(-2.56097e-05 1.07284e-05 -4.64596e-06 6.36548e-08 -0.025288 0.00340689 8.44146e-05 0.0564945 -0.203494)
(-3.45024e-06 -5.64932e-06 -1.02088e-06 -3.8146e-06 -0.0252439 0.0033891 4.80836e-05 0.056801 -0.203526)
(-1.73828e-06 -4.80192e-06 -5.01009e-07 -8.79822e-07 -0.0252444 0.00339959 6.46325e-05 0.0564364 -0.203504)
(-1.86896e-06 4.63779e-06 -5.01475e-07 -1.78136e-07 -0.025282 0.00340776 3.59811e-05 0.0565777 -0.203529)
(-5.73492e-07 -1.75376e-06 1.55651e-06 1.42865e-06 -0.0252557 0.00339974 2.57862e-05 0.0565882 -0.203517)
(6.31629e-08 -4.56417e-06 9.47201e-07 1.41351e-07 -0.0252848 0.00340232 4.13342e-05 0.0565623 -0.203503)
(-1.46199e-06 -7.40868e-07 -5.72576e-07 -3.41001e-06 -0.0252666 0.00340186 2.52156e-05 0.056441 -0.203507)
(-2.20659e-06 6.39376e-06 -9.97331e-07 1.53895e-06 -0.0252823 0.003405 8.36246e-06 0.0565599 -0.203512)
(5.43753e-08 6.0642e-06 -1.50633e-06 3.77839e-06 -0.0252721 0.00338469 -3.63463e-06 0.0567753 -0.203531)
(5.93606e-07 -2.90044e-06 6.85158e-07 4.72822e-07 -0.0252993 0.00339563 3.89965e-06 0.0566203 -0.203527)
(-1.01183e-06 -4.54792e-06 1.32769e-06 2.66727e-07 -0.0252769 0.00340164 2.44913e-07 0.05657 -0.203521)
(-9.67773e-08 4.36552e-06 -2.04459e-06 7.22532e-07 -0.0252873 0.00340354 -7.03718e-06 0.0565709 -0.203522)
(7.97336e-07 8.80828e-09 5.43237e-07 -6.69019e-07 -0.0252999 0.00339647 -2.34594e-06 0.056617 -0.203529)
(-2.62132e-07 -5.84621e-06 3.19518e-06 -1.05141e-06 -0.0252766 0.00340111 -1.21976e-06 0.05657 -0.203522)
(-1.01115e-06 -4.60324e-07 -1.08166e-06 -2.97716e-06 -0.0252843 0.0034011 -5.78263e-06 0.0565602 -0.203493)
(-1.90244e-06 1.69426e-06 -1.59994e-06 -1.90171e-06 -0.0252812 0.00340467 -1.37356e-05 0.0565654 -0.203524)
(-1.52128e-06 2.56432e-06 1.18908e-06 2.9336e-06 -0.0252817 0.0034045 -3.0396e-05 0.0565769 -0.203519)
(-2.16387e-08 5.46562e-07 1.36731e-07 3.22389e-06 -0.0252599 0.00338795 -3.48887e-05 0.056674 -0.203519)
(-9.30009e-07 -1.18199e-06 -1.29793e-06 -1.10419e-06 -0.0252786 0.00340149 -4.90066e-05 0.0565799 -0.203525)
(-1.39075e-06 2.51514e-07 3.00499e-07 -2.23781e-06 -0.0252633 0.00340891 -6.05745e-05 0.0565709 -0.203518)
(-2.78429e-06 3.25148e-06 1.09764e-06 1.73573e-06 -0.0252399 0.00338231 -4.08678e-05 0.056663 -0.203506)
(-2.65608e-05 -8.83184e-06 4.27093e-06 -7.75311e-07 -0.0253027 0.00340868 -7.43325e-05 0.0566113 -0.203503)
(-0.000235959 -0.000122595 -9.59678e-05 -5.02848e-05 -0.0252853 0.00340698 -0.00032757 0.0564784 -0.203423)
(-0.00194998 -0.00055884 -0.000909611 -0.000260419 -0.0249488 0.00330311 -0.00241615 0.0555074 -0.203761)
(-0.0177641 -0.000669775 0.00487068 -0.000874003 -0.0235773 0.00285508 -0.0219971 0.0506885 -0.205727)
(-0.0860649 0.00310932 0.112051 -0.00666227 -0.0220258 0.00482591 -0.212763 0.0479214 -0.15228)
(-0.0887425 -0.0025948 -0.115936 0.00539143 -0.0139502 0.0025612 0.22017 0.0303718 -0.151263)
(-0.0183639 0.000426064 -0.00501299 0.000792335 -0.0148823 0.000987799 0.0229168 0.0317679 -0.206543)
(-0.00203139 0.000414383 0.000954463 0.000225442 -0.0159393 0.0013045 0.00266735 0.0350665 -0.20448)
(-0.000259141 9.70833e-05 0.000102122 5.03911e-05 -0.0161925 0.00135437 0.000363205 0.0360742 -0.204176)
(-3.09875e-05 1.21561e-05 -6.15309e-06 3.60712e-06 -0.0161812 0.00135533 0.000101579 0.0361549 -0.204246)
(-3.95518e-06 -1.91416e-06 -1.58723e-06 -3.09411e-06 -0.0161987 0.00134836 6.08117e-05 0.0363206 -0.204285)
(-1.37966e-06 -6.00621e-06 1.58813e-06 -1.72106e-06 -0.0161535 0.00134638 4.747e-05 0.0361745 -0.204265)
(-1.65596e-06 2.48404e-06 -4.32262e-07 5.71368e-07 -0.0161935 0.00135803 4.97631e-05 0.0361383 -0.204273)
(-1.00218e-06 -2.42787e-06 7.36882e-07 -9.24537e-07 -0.016186 0.00134962 2.6468e-05 0.0362886 -0.204284)
(-2.17541e-07 -4.40607e-06 9.49137e-07 -1.346e-06 -0.016186 0.00134888 9.92491e-06 0.0360441 -0.204259)
(-9.88927e-07 -6.92107e-07 3.94129e-07 -2.60074e-06 -0.0161652 0.00134896 2.17529e-05 0.0361243 -0.204263)
(-1.55825e-06 1.05687e-06 -1.63664e-06 -7.93944e-07 -0.0161877 0.00135247 2.36246e-05 0.0360359 -0.204236)
(1.27771e-08 5.15298e-06 -1.48443e-06 4.52611e-06 -0.0162054 0.00135132 3.13592e-07 0.0360595 -0.204261)
(2.04046e-07 -2.12865e-07 1.74533e-06 1.92975e-06 -0.0162058 0.00136081 5.23592e-06 0.0361607 -0.204271)
(-1.04189e-06 -4.03822e-06 9.25042e-07 -1.04853e-06 -0.0161923 0.00135304 9.59546e-07 0.0361326 -0.204267)
(-1.36639e-07 2.61658e-06 -1.06128e-06 1.10238e-06 -0.0161898 0.00135389 -6.43772e-06 0.0360388 -0.204258)
(4.87331e-07 1.28855e-06 1.06757e-08 3.39189e-07 -0.0162058 0.00136155 -3.15228e-06 0.0361568 -0.204273)
(-4.53564e-07 -5.12844e-06 1.95362e-06 -3.38407e-06 -0.0161917 0.00135281 -2.89359e-06 0.0361344 -0.204269)
(-8.555e-07 -9.09988e-07 -6.04441e-07 -2.06677e-06 -0.0161893 0.00134373 -8.52914e-06 0.0360447 -0.204237)
(-1.57398e-06 2.2344e-06 -8.47843e-07 4.50529e-07 -0.0161983 0.00135824 -1.45621e-05 0.0361259 -0.204268)
(-1.19156e-06 3.62779e-06 -9.7025e-07 2.29936e-06 -0.0162013 0.00135643 -4.27092e-05 0.0361337 -0.204248)
(1.47552e-07 9.94195e-07 -4.48903e-07 2.78734e-06 -0.0161824 0.00134609 -3.18762e-05 0.0361637 -0.204271)
(-1.39706e-06 -4.72435e-07 1.32234e-06 -3.36819e-07 -0.0161924 0.00135263 -1.76835e-05 0.036141 -0.204273)
(-1.65033e-06 2.64753e-06 -1.89855e-06 -1.29433e-06 -0.0161834 0.00135227 -6.07866e-05 0.0361924 -0.204252)
(-2.8156e-06 -2.06462e-07 8.61409e-07 1.0606e-06 -0.0161746 0.00134035 -5.58612e-05 0.0362085 -0.204266)
(-3.19068e-05 -1.21365e-05 7.57684e-06 -4.40796e-06 -0.0162119 0.00135988 -7.83538e-05 0.0361535 -0.204246)
(-0.000260526 -9.48626e-05 -0.000102786 -4.9904e-05 -0.0161881 0.00135452 -0.000384964 0.0359563 -0.204135)
(-0.00203099 -0.000410957 -0.000955452 -0.000222299 -0.0159478 0.00130986 -0.00267082 0.035079 -0.204496)
(-0.0183607 -0.000424643 0.00501383 -0.000790849 -0.0148821 0.000989348 -0.0229227 0.0317635 -0.20654)
(-0.0887416 0.0025983 0.115908 -0.00539303 -0.0139377 0.00255401 -0.220115 0.03051 -0.151266)
(-0.0903997 -0.00185954 -0.118767 0.0037894 -0.0088205 0.00124342 0.225569 0.0192338 -0.150983)
(-0.0188002 0.000268952 -0.00512044 0.00062758 -0.00929852 0.000148317 0.0236858 0.0198344 -0.207535)
(-0.00209828 0.000299657 0.000982745 0.000176097 -0.0101 0.000350341 0.00286882 0.0222767 -0.20547)
(-0.000278724 7.45956e-05 0.000105936 4.20183e-05 -0.0103126 0.000378344 0.000441241 0.0229576 -0.205148)
(-3.63067e-05 9.48717e-06 -5.84845e-06 4.10911e-06 -0.01032 0.000378034 0.000107035 0.0231455 -0.205216)
(-4.51588e-06 -1.15561e-07 -2.81098e-06 -1.88215e-06 -0.0103372 0.000384904 4.38901e-05 0.0230536 -0.205249)
(-1.00519e-06 -3.77109e-06 1.43279e-06 -1.62359e-06 -0.0103011 0.000372195 4.72016e-05 0.0231447 -0.205235)
(-1.70965e-06 -1.86216e-06 1.45538e-07 -9.13052e-07 -0.0103185 0.000379024 4.83247e-05 0.023018 -0.205248)
(-9.56966e-07 -2.41563e-07 -2.73069e-07 -2.75518e-07 -0.0103281 0.000379409 1.18914e-05 0.0230343 -0.20525)
(-2.72077e-07 -4.0295e-07 8.14576e-07 -7.13758e-09 -0.0102966 0.00037418 2.4167e-05 0.0230184 -0.205245)
(-1.35158e-06 -1.09097e-06 1.44207e-07 -2.46024e-06 -0.0103066 0.000373569 1.91204e-05 0.0231267 -0.205253)
(-7.81216e-07 -1.65117e-06 -5.24208e-07 -1.8642e-06 -0.0103018 0.000371756 -5.88463e-06 0.0230162 -0.205236)
(5.99114e-07 2.4582e-06 1.61697e-07 3.31006e-06 -0.0103026 0.000380271 1.8053e-05 0.0229439 -0.205231)
(-5.21323e-07 -2.66301e-07 1.02924e-06 1.31711e-06 -0.0103253 0.000381762 2.04718e-05 0.0230313 -0.205244)
(-1.1773e-06 -1.36237e-06 -5.63126e-08 -4.41191e-07 -0.0103181 0.000376493 -1.33684e-05 0.0230131 -0.205243)
(1.80767e-07 1.66019e-06 -3.42941e-07 1.22687e-06 -0.0102996 0.000375948 -5.24785e-06 0.023015 -0.20524)
(-9.99542e-08 -3.64592e-07 3.28684e-07 -4.09591e-07 -0.0103252 0.000381839 1.06432e-05 0.0230284 -0.205245)
(-7.43324e-07 -2.54339e-06 -3.68574e-07 -2.86856e-06 -0.0103175 0.000377156 -1.96993e-05 0.0230141 -0.205244)
(-2.44233e-07 -1.78096e-06 3.09263e-09 -2.08878e-06 -0.0103035 0.000368061 -1.01252e-05 0.0230187 -0.205241)
(-1.02921e-06 -7.14466e-07 9.39004e-07 -1.024e-06 -0.0103139 0.000377637 -4.03252e-07 0.0229264 -0.205234)
(-1.05391e-06 5.75071e-06 -1.24119e-06 3.87698e-06 -0.0103209 0.000373748 -2.58464e-05 0.0229415 -0.205217)
(-5.48875e-07 2.3419e-06 -6.22761e-07 3.65545e-06 -0.0103185 0.000379712 -2.90948e-05 0.0231485 -0.205257)
(-1.74634e-06 -1.38198e-06 -6.16841e-08 -1.25052e-06 -0.0103177 0.000377361 -4.71825e-05 0.0230203 -0.205249)
(-1.11127e-06 3.79636e-06 -2.1557e-06 2.57798e-07 -0.0103102 0.000373225 -6.03375e-05 0.0230427 -0.205242)
(-3.40702e-06 -2.45814e-06 2.62018e-06 -2.70239e-07 -0.0103056 0.000377003 -4.04235e-05 0.0230775 -0.205241)
(-3.67537e-05 -1.15246e-05 7.10611e-06 -6.08906e-06 -0.0103222 0.000379155 -9.83381e-05 0.0229418 -0.20521)
(-0.000279537 -6.97697e-05 -0.000105972 -3.85199e-05 -0.0103006 0.000369683 -0.000446389 0.0229488 -0.205114)
(-0.00209817 -0.000297651 -0.000982646 -0.000173881 -0.0101054 0.000357483 -0.00286083 0.0222765 -0.205465)
(-0.0187982 -0.000267746 0.00511951 -0.000627859 -0.00929966 0.000151437 -0.0236905 0.0198271 -0.207529)
(-0.090395 0.00186599 0.118753 -0.00379846 -0.00882739 0.00124161 -0.225543 0.0192592 -0.150987)
(-0.0914185 -0.00121561 -0.120638 0.00244177 -0.00556865 0.000652352 0.229139 0.0121462 -0.150959)
(-0.0190866 0.000170173 -0.00519161 0.000452332 -0.00576946 -5.17335e-05 0.0242825 0.0123487 -0.208326)
(-0.00214851 0.000211577 0.00100047 0.000133001 -0.00637942 7.49692e-05 0.00302666 0.0141548 -0.206271)
(-0.000293539 5.30724e-05 0.000107661 3.04116e-05 -0.00653794 9.19898e-05 0.00046374 0.0145596 -0.205942)
(-3.97676e-05 7.22575e-06 -4.84101e-06 3.68769e-06 -0.00655948 9.04422e-05 0.000110604 0.0146369 -0.206008)
(-5.10172e-06 1.85864e-06 -2.75513e-06 2.84718e-07 -0.00655815 9.90903e-05 5.60062e-05 0.014633 -0.206042)
(-1.18584e-06 -2.26131e-06 4.12071e-07 -1.62752e-06 -0.00655243 9.23809e-05 4.48698e-05 0.0147308 -0.206052)
(-1.38634e-06 -2.90026e-06 1.01069e-06 -1.2989e-06 -0.00654599 9.175e-05 3.40946e-05 0.0146124 -0.206045)
(-8.20996e-07 1.95286e-06 -2.31837e-07 1.15164e-06 -0.00655166 9.65476e-05 2.61745e-05 0.0146205 -0.206046)
(-6.54486e-07 -1.12395e-07 -2.18907e-07 -4.32029e-07 -0.00653839 9.33066e-05 2.38682e-05 0.0147093 -0.206051)
(-1.36034e-06 -1.74337e-06 -9.06766e-08 -2.72571e-06 -0.0065497 9.2178e-05 1.6548e-05 0.0146194 -0.206044)
(-4.04186e-07 1.85127e-06 -2.96201e-07 9.38945e-07 -0.00653386 8.69369e-05 -5.62254e-06 0.0146357 -0.206041)
(6.49039e-07 4.62984e-07 5.16674e-07 1.87399e-06 -0.00652721 9.07619e-05 6.63846e-06 0.0147194 -0.206043)
(-5.46204e-07 -3.30883e-06 9.89596e-07 -1.44003e-06 -0.00654933 9.26367e-05 1.99117e-05 0.0146209 -0.206041)
(-1.05994e-06 1.09142e-06 -2.37737e-07 7.8113e-07 -0.00654675 8.92508e-05 4.30215e-07 0.0146083 -0.206042)
(-1.30319e-07 1.20228e-06 8.00329e-09 1.17352e-06 -0.00653967 9.16623e-05 -4.00858e-06 0.014708 -0.206048)
(-3.31755e-07 -2.28042e-06 2.52272e-07 -1.63107e-06 -0.00654915 9.2363e-05 -3.91704e-06 0.0146187 -0.206043)
(-7.89401e-07 -7.92576e-07 -8.01978e-07 -1.85069e-06 -0.00654531 9.05353e-05 -7.31292e-06 0.0146095 -0.206042)
(-4.86588e-07 -2.02962e-07 -5.08126e-07 -6.80035e-07 -0.00653898 8.91507e-05 -2.4455e-05 0.0146307 -0.206042)
(-3.80832e-07 -1.23702e-06 2.89461e-07 -1.26057e-06 -0.0065296 8.75003e-05 -2.90876e-05 0.0146084 -0.206035)
(-2.55671e-07 2.72173e-06 -5.55231e-07 2.24377e-06 -0.00652608 8.29656e-05 -9.69472e-06 0.014544 -0.206032)
(-8.77947e-07 1.62093e-06 2.73742e-07 3.02104e-06 -0.00655675 9.54441e-05 -1.26702e-05 0.0146325 -0.206046)
(-2.07659e-06 1.19018e-06 2.49555e-08 6.16444e-07 -0.00654547 9.17241e-05 -3.37984e-05 0.0146144 -0.206046)
(-1.45427e-06 5.06646e-06 -1.97004e-06 2.34751e-06 -0.00654583 9.2967e-05 -5.9151e-05 0.0147257 -0.206052)
(-4.08497e-06 -2.6111e-06 2.04741e-06 -8.96184e-07 -0.00654161 9.65507e-05 -6.73088e-05 0.0147389 -0.206044)
(-3.95567e-05 -1.11353e-05 6.11278e-06 -7.37519e-06 -0.00653384 8.99394e-05 -9.06332e-05 0.0146171 -0.206011)
(-0.000294084 -5.15017e-05 -0.000107121 -2.89863e-05 -0.00653266 8.31081e-05 -0.000450968 0.0145752 -0.205933)
(-0.00214886 -0.000210765 -0.000999101 -0.00013108 -0.00638368 7.74945e-05 -0.00303158 0.0141532 -0.206263)
(-0.0190857 -0.000169046 0.00519066 -0.000452342 -0.0057718 -5.23492e-05 -0.0242894 0.0123467 -0.208301)
(-0.0914153 0.00122156 0.12063 -0.00245057 -0.00557296 0.000656936 -0.229125 0.0121599 -0.150963)
(-0.0920459 -0.000750474 -0.121798 0.00149045 -0.00351586 0.000380276 0.231351 0.00764995 -0.150983)
(-0.019262 0.000106798 -0.00523592 0.000302699 -0.00357482 -5.15765e-05 0.0246811 0.00768366 -0.208849)
(-0.00218266 0.00014596 0.00101149 9.83174e-05 -0.00402832 2.86731e-05 0.00314586 0.00885676 -0.206796)
(-0.000304587 3.85836e-05 0.00010903 2.29329e-05 -0.00413979 3.70963e-05 0.000491129 0.00921255 -0.206478)
(-4.23321e-05 5.44518e-06 -4.42837e-06 3.19732e-06 -0.00415746 3.68405e-05 0.000111859 0.00926967 -0.20656)
(-5.57892e-06 1.29435e-06 -2.42325e-06 5.67008e-07 -0.00415593 3.95139e-05 5.57201e-05 0.00926918 -0.20658)
(-1.32191e-06 -1.33827e-06 -3.52656e-08 -1.21965e-06 -0.00416112 4.20395e-05 4.34877e-05 0.00927545 -0.206586)
(-1.15382e-06 -1.70732e-06 9.78878e-07 -7.99508e-07 -0.00414843 3.67173e-05 3.38227e-05 0.00925609 -0.206584)
(-7.83592e-07 1.27859e-06 3.82524e-08 4.66428e-07 -0.0041514 3.86389e-05 2.69538e-05 0.00926093 -0.206583)
(-1.04755e-06 -1.14081e-08 -5.93431e-08 -4.58617e-07 -0.0041548 3.98584e-05 2.34436e-05 0.00926767 -0.20657)
(-1.07739e-06 -1.84662e-07 -1.12972e-06 -9.90159e-07 -0.0041507 4.03928e-05 1.5139e-06 0.00926035 -0.206581)
(1.38725e-07 2.84697e-06 -8.07423e-07 1.87703e-06 -0.00413914 3.54896e-05 8.76337e-06 0.00926885 -0.206578)
(1.23318e-07 -6.35605e-07 1.30164e-06 6.25152e-07 -0.00415135 3.83019e-05 2.10349e-05 0.00935928 -0.206586)
(-7.39896e-07 -4.17435e-06 7.27011e-07 -2.66343e-06 -0.0041501 3.68361e-05 5.3001e-06 0.00926239 -0.206581)
(-6.54591e-07 5.67735e-07 -2.51189e-07 1.13631e-07 -0.00415236 3.59288e-05 5.63346e-07 0.00925158 -0.206582)
(-3.01672e-07 1.18029e-06 2.79506e-07 1.25876e-06 -0.00415455 3.72551e-05 -2.99457e-06 0.00926803 -0.206571)
(-7.04796e-07 -1.49075e-06 1.03289e-07 -9.19083e-07 -0.00414959 3.65758e-05 -4.83869e-06 0.00926091 -0.206583)
(-5.53118e-07 -5.09006e-07 -1.01103e-06 -1.71815e-06 -0.00414856 3.4487e-05 -2.13344e-05 0.00925464 -0.206582)
(-1.26209e-07 1.36029e-06 -6.03911e-07 7.0616e-07 -0.00413632 3.45926e-05 -1.08752e-05 0.00919783 -0.206558)
(-4.44452e-07 1.86451e-06 -2.98023e-07 1.68502e-06 -0.00414655 3.5427e-05 -1.59564e-05 0.00933978 -0.206584)
(-1.97591e-07 3.21099e-07 3.47577e-07 7.98966e-07 -0.00412958 3.18086e-05 -2.17353e-05 0.00935117 -0.206584)
(-8.7434e-07 -1.53649e-06 1.12894e-06 9.92512e-08 -0.0041548 4.14288e-05 -1.15928e-05 0.00926869 -0.206583)
(-1.88105e-06 8.02242e-07 -5.57106e-07 4.22139e-07 -0.00414805 3.72231e-05 -3.34818e-05 0.00925838 -0.206585)
(-1.41379e-06 4.56785e-06 -1.19037e-06 2.88819e-06 -0.00415826 3.98986e-05 -4.4129e-05 0.00927466 -0.206585)
(-5.35156e-06 -6.17191e-08 2.01467e-06 5.23794e-07 -0.00416079 4.42021e-05 -5.39423e-05 0.00936837 -0.206583)
(-4.23717e-05 -9.73394e-06 4.41759e-06 -7.23282e-06 -0.00414598 3.62681e-05 -0.000122859 0.00934596 -0.20656)
(-0.000304278 -3.97369e-05 -0.000108461 -2.39177e-05 -0.00412923 3.12906e-05 -0.000491754 0.00914535 -0.206463)
(-0.00218284 -0.000145478 -0.00100974 -9.65365e-05 -0.00403111 2.80244e-05 -0.00313537 0.00885466 -0.206788)
(-0.0192621 -0.000105601 0.0052354 -0.000302062 -0.00357561 -5.59323e-05 -0.0246842 0.00768239 -0.208844)
(-0.0920448 0.000755405 0.121796 -0.00149725 -0.0035165 0.000384833 -0.231349 0.00765865 -0.150985)
(-0.0924315 -0.000447491 -0.122489 0.000881346 -0.0022265 0.000235619 0.23267 0.00480081 -0.151005)
(-0.019365 6.7681e-05 -0.00526193 0.000192857 -0.00222312 -2.4974e-05 0.0249383 0.00478124 -0.209169)
(-0.00220446 9.85831e-05 0.0010182 7.06468e-05 -0.00254177 2.55323e-05 0.00323259 0.00556224 -0.207125)
(-0.000312563 2.72431e-05 0.000109295 1.68077e-05 -0.00262681 2.84774e-05 0.00051218 0.00581628 -0.206814)
(-4.42408e-05 3.99784e-06 -4.35749e-06 2.52848e-06 -0.00264487 2.75997e-05 0.000116732 0.00586037 -0.206887)
(-5.98512e-06 1.12739e-06 -1.71535e-06 1.00483e-06 -0.00264017 2.86163e-05 5.56037e-05 0.00585868 -0.206919)
(-1.45914e-06 -7.60431e-07 -1.47253e-07 -7.89385e-07 -0.00264277 3.28918e-05 4.24077e-05 0.00586113 -0.206922)