/*--------------------------------*- C++ -*----------------------------------*\
| =========                 |                                                 |
| \\      /  F ield         | OpenFOAM: The Open Source CFD Toolbox           |
|  \\    /   O peration     | Version:  2106                                  |
|   \\  /    A nd           | Website:  www.openfoam.com                      |
|    \\/     M anipulation  |                                                 |
\*---------------------------------------------------------------------------*/
FoamFile
{
    version     2.0;
    format      ascii;
    arch        "LSB;label=32;scalar=64";
    class       volVectorField;
    location    "1148";
    object      D;
}
// * * * * * * * * * * * * * * * * * * * * * * * * * * * * * * * * * * * * * //

dimensions      [0 1 0 0 0 0 0];

internalField   nonuniform List<vector> 
9000
(
(1.51525 2.23795 3.74632)
(-0.0419765 2.37995 3.02511)
(-0.512484 1.84066 2.26454)
(-0.505438 1.07318 1.31763)
(-0.157622 0.564188 0.6967)
(0.264242 0.543759 0.702811)
(0.466145 0.908831 1.20339)
(0.336936 1.33105 1.74279)
(0.00665495 1.49043 1.91044)
(-0.290384 1.28363 1.60732)
(-0.383543 0.856061 1.03959)
(-0.256359 0.458043 0.541821)
(-0.0255518 0.278021 0.344969)
(0.168083 0.354901 0.462833)
(0.247745 0.596377 0.764157)
(0.197774 0.852168 1.08278)
(0.0381249 0.977221 1.26339)
(-0.152956 0.900364 1.19059)
(-0.222337 0.694663 0.899351)
(-0.0706399 0.557413 0.669964)
(0.204003 0.677486 0.800876)
(0.369539 1.05535 1.31247)
(0.270634 1.46983 1.88461)
(-0.00909375 1.66328 2.12215)
(-0.21773 1.5609 1.92672)
(-0.185973 1.31806 1.56325)
(0.0179782 1.14047 1.35343)
(0.167617 1.0704 1.34011)
(0.0781379 0.89536 1.22985)
(-0.199973 0.240557 0.658593)
(1.34876 1.11493 2.48602)
(0.00984905 1.32785 1.81808)
(-0.369784 1.03261 1.34754)
(-0.367999 0.581626 0.786822)
(-0.100549 0.283337 0.418786)
(0.226689 0.262548 0.42884)
(0.381911 0.459643 0.73863)
(0.27724 0.702319 1.06551)
(0.0161129 0.80966 1.15957)
(-0.217755 0.710125 0.967167)
(-0.291419 0.478869 0.618017)
(-0.192636 0.251683 0.318447)
(-0.0140531 0.138437 0.206716)
(0.134191 0.175029 0.283409)
(0.194285 0.314395 0.465675)
(0.155202 0.461882 0.657413)
(0.0299456 0.523633 0.770572)
(-0.124156 0.468237 0.730986)
(-0.184666 0.360902 0.547342)
(-0.0682661 0.301164 0.397202)
(0.148544 0.374685 0.47264)
(0.280781 0.574846 0.789598)
(0.203357 0.790668 1.14633)
(-0.0169209 0.901804 1.28961)
(-0.176267 0.866852 1.15941)
(-0.137483 0.748226 0.931724)
(0.0437179 0.640531 0.814838)
(0.182912 0.576057 0.825481)
(0.128557 0.449917 0.759825)
(-0.0602764 0.0261747 0.344883)
(1.13016 0.531871 1.74992)
(0.0612894 0.800084 1.21773)
(-0.23148 0.618466 0.899917)
(-0.23551 0.319165 0.524464)
(-0.0454637 0.123538 0.277427)
(0.189951 0.1035 0.285978)
(0.300735 0.219856 0.498403)
(0.221662 0.375915 0.722111)
(0.028732 0.459328 0.785616)
(-0.143835 0.414666 0.652614)
(-0.199417 0.281933 0.413411)
(-0.129568 0.140268 0.209738)
(-0.00258314 0.0606852 0.135589)
(0.101526 0.0771658 0.190037)
(0.142408 0.165156 0.315432)
(0.112747 0.258439 0.446205)
(0.01983 0.289288 0.52278)
(-0.0973846 0.245112 0.494587)
(-0.147615 0.185506 0.367163)
(-0.0657339 0.161899 0.26296)
(0.093262 0.21039 0.31417)
(0.192068 0.321759 0.531893)
(0.136648 0.439205 0.777157)
(-0.0232666 0.50902 0.875541)
(-0.133326 0.505688 0.786445)
(-0.088967 0.445538 0.634023)
(0.0668045 0.368725 0.562779)
(0.18957 0.3062 0.576977)
(0.157157 0.217253 0.514306)
(0.0765133 -0.067852 0.0963205)
(0.889145 0.270473 1.1831)
(0.104993 0.556496 0.806165)
(-0.104036 0.417444 0.596791)
(-0.113035 0.183219 0.343329)
(0.00547791 0.0329761 0.175999)
(0.15539 0.0145138 0.182332)
(0.225387 0.0971882 0.32818)
(0.171555 0.215893 0.483374)
(0.0432607 0.289213 0.528971)
(-0.0718873 0.27042 0.43833)
(-0.111141 0.183367 0.274413)
(-0.0694011 0.0818192 0.134843)
(0.00851233 0.0190358 0.084326)
(0.0711025 0.0265574 0.122954)
(0.0937971 0.0899564 0.210621)
(0.0722466 0.157794 0.300783)
(0.0089322 0.17614 0.351183)
(-0.0731899 0.139256 0.328466)
(-0.112863 0.0994653 0.240242)
(-0.0635419 0.0882965 0.16966)
(0.0403103 0.122674 0.205571)
(0.107218 0.193789 0.354807)
(0.0731846 0.268151 0.522548)
(-0.0285805 0.318722 0.591153)
(-0.0918209 0.326109 0.533483)
(-0.0435047 0.287309 0.4353)
(0.0859216 0.220357 0.394604)
(0.18997 0.158873 0.407661)
(0.175355 0.10099 0.339589)
(0.205815 -0.0857304 -0.110451)
(0.647433 0.20368 0.709542)
(0.136145 0.471165 0.481136)
(0.0061508 0.334898 0.357459)
(-0.00587836 0.119899 0.197277)
(0.0500519 -0.015672 0.0910011)
(0.124607 -0.0323959 0.095678)
(0.159064 0.0416933 0.190378)
(0.128573 0.149356 0.293122)
(0.0584081 0.219745 0.325626)
(-0.0054925 0.210891 0.26856)
(-0.0305443 0.140807 0.163479)
(-0.0145492 0.0547861 0.0737824)
(0.0189633 -0.000291493 0.041554)
(0.0441652 0.00429139 0.0678274)
(0.0503925 0.0575768 0.126178)
(0.0357038 0.115676 0.184754)
(-0.00158376 0.131897 0.214642)
(-0.0523495 0.100634 0.1959)
(-0.0824123 0.0655112 0.137999)
(-0.0623092 0.0537659 0.0933872)
(-0.0079494 0.0799322 0.117169)
(0.0304766 0.137383 0.212879)
(0.0160045 0.199101 0.320135)
(-0.0332351 0.24266 0.365645)
(-0.0547511 0.249243 0.332767)
(-0.0040549 0.211198 0.276997)
(0.100102 0.142353 0.259741)
(0.185995 0.0808703 0.271219)
(0.188595 0.0491195 0.198562)
(0.322784 -0.0593786 -0.278832)
(0.420202 0.250168 0.32521)
(0.152744 0.469763 0.225794)
(0.094567 0.315161 0.167931)
(0.0818931 0.0969439 0.0788915)
(0.0864993 -0.0393057 0.0192756)
(0.0987933 -0.0546874 0.0230181)
(0.104237 0.0228555 0.0790697)
(0.0940327 0.132534 0.141924)
(0.0731664 0.203722 0.164627)
(0.0525005 0.196885 0.133782)
(0.0391951 0.129347 0.0743826)
(0.0330118 0.0463177 0.0235199)
(0.0285141 -0.00595835 0.00581796)
(0.0217113 -0.00143698 0.0226725)
(0.0137706 0.0491822 0.0581793)
(0.00471669 0.105744 0.0921922)
(-0.0108266 0.125147 0.106491)
(-0.0354868 0.0985613 0.0911699)
(-0.0577936 0.0607659 0.0561373)
(-0.0624594 0.0422867 0.0306448)
(-0.0496322 0.063469 0.0444171)
(-0.0348191 0.120711 0.0987477)
(-0.0324694 0.185176 0.159587)
(-0.0374254 0.228228 0.187229)
(-0.0243405 0.228672 0.173016)
(0.0271928 0.181194 0.149362)
(0.108653 0.104103 0.149807)
(0.178686 0.0409118 0.159973)
(0.198601 0.0302338 0.0852716)
(0.423455 -0.0122975 -0.408771)
(0.217264 0.353367 0.0307833)
(0.155411 0.505101 0.033956)
(0.159671 0.323171 0.0231302)
(0.148551 0.0933256 -0.014092)
(0.113966 -0.0497042 -0.039592)
(0.07836 -0.0644713 -0.0361984)
(0.0618877 0.0206562 -0.00789288)
(0.068394 0.137443 0.0260427)
(0.0869398 0.211247 0.0417493)
(0.100649 0.20356 0.0305592)
(0.0964797 0.13297 0.00520705)
(0.0722466 0.0477932 -0.0165706)
(0.0369541 -0.00406025 -0.0230732)
(0.00415925 0.00134284 -0.013049)
(-0.0153259 0.0524677 0.00534988)
(-0.0199162 0.11107 0.0210651)
(-0.0182958 0.1357 0.0242359)
(-0.022792 0.113097 0.0119447)
(-0.0396203 0.0701033 -0.00680754)
(-0.0641096 0.0430305 -0.0192611)
(-0.0838122 0.0608338 -0.0136243)
(-0.0870863 0.123166 0.010108)
(-0.0710741 0.196401 0.0370383)
(-0.0412051 0.241917 0.0514755)
(-0.00160624 0.234846 0.0504567)
(0.0492095 0.174378 0.0496551)
(0.111221 0.0861243 0.0625607)
(0.168404 0.0190954 0.0715464)
(0.205411 0.0241507 -0.00273008)
(0.505468 0.0382699 -0.502244)
(0.0442617 0.473055 -0.179245)
(0.146583 0.547119 -0.10275)
(0.20258 0.336956 -0.0832268)
(0.19461 0.095193 -0.0847562)
(0.132492 -0.0553829 -0.0865538)
(0.0630015 -0.0703984 -0.0831219)
(0.0315735 0.0219082 -0.0736177)
(0.0512727 0.146275 -0.0594951)
(0.0995035 0.223439 -0.0484236)
(0.138862 0.21511 -0.0454549)
(0.141255 0.141177 -0.0465055)
(0.103063 0.053189 -0.0474207)
(0.0441394 0.000977052 -0.0456269)
(-0.00864211 0.00708972 -0.0403114)
(-0.0369895 0.0593028 -0.0341511)
(-0.0381754 0.12069 -0.031383)
(-0.0238408 0.150599 -0.0355915)
(-0.0140232 0.131439 -0.0452405)
(-0.0276483 0.0834967 -0.0531224)
(-0.0671184 0.0484049 -0.0574766)
(-0.110499 0.0633652 -0.0583131)
(-0.126422 0.131179 -0.0561521)
(-0.0998684 0.21361 -0.0526891)
(-0.0445414 0.262413 -0.0474911)
(0.0135321 0.248774 -0.0397944)
(0.0620368 0.175754 -0.0254893)
(0.107783 0.0756317 -0.00470934)
(0.155077 0.00259412 0.0029555)
(0.208444 0.017965 -0.0689334)
(0.568017 0.0803173 -0.56343)
(-0.0964143 0.58138 -0.315208)
(0.12955 0.577849 -0.194303)
(0.226149 0.343784 -0.158328)
(0.222165 0.0939354 -0.13688)
(0.14278 -0.0622868 -0.123134)
(0.0519453 -0.0784304 -0.119467)
(0.0118686 0.0183889 -0.121891)
(0.0416865 0.148426 -0.120463)
(0.110897 0.229137 -0.112121)
(0.168024 0.222063 -0.0992934)
(0.174592 0.147392 -0.0837209)
(0.126073 0.0584149 -0.0703212)
(0.0499983 0.00604574 -0.0626535)
(-0.0172505 0.0121395 -0.0604287)
(-0.0519264 0.0645663 -0.062598)
(-0.0506083 0.127869 -0.0684632)
(-0.027554 0.162048 -0.0771211)
(-0.00863514 0.145956 -0.0845332)
(-0.0210553 0.0946726 -0.0856753)
(-0.0711936 0.0532532 -0.0856312)
(-0.130381 0.0651915 -0.0915214)
(-0.154113 0.136208 -0.103836)
(-0.119784 0.225282 -0.115672)
(-0.0473613 0.277001 -0.116539)
(0.0219133 0.258891 -0.103517)
(0.0664788 0.175878 -0.0801469)
(0.098581 0.0645266 -0.0552808)
(0.138434 -0.0164694 -0.0493148)
(0.206999 0.00397357 -0.117491)
(0.611466 0.106323 -0.597758)
(-0.205028 0.660334 -0.390029)
(0.107608 0.588021 -0.250668)
(0.23401 0.337519 -0.209131)
(0.234146 0.0848872 -0.17428)
(0.145922 -0.0741847 -0.151103)
(0.0442131 -0.0922993 -0.147169)
(0.000850116 0.00557373 -0.156526)
(0.0383434 0.138454 -0.162501)
(0.121309 0.222672 -0.155402)
(0.189562 0.21948 -0.135887)
(0.1982 0.147939 -0.109436)
(0.14231 0.0609284 -0.0866906)
(0.0545266 0.00914145 -0.0750899)
(-0.0224405 0.014292 -0.0747968)
(-0.061192 0.0653693 -0.0823052)
(-0.058082 0.12895 -0.093493)
(-0.0296575 0.165976 -0.104445)
(-0.00593015 0.15274 -0.110021)
(-0.0187428 0.100165 -0.107389)
(-0.0759954 0.0543749 -0.105531)
(-0.14453 0.0626592 -0.115308)
(-0.172093 0.133438 -0.13681)
(-0.132228 0.225364 -0.157892)
(-0.0495858 0.279092 -0.162403)
(0.0247747 0.259003 -0.146453)
(0.0637666 0.16941 -0.118454)
(0.0840469 0.0481708 -0.0924719)
(0.11818 -0.0423963 -0.088735)
(0.200467 -0.0217344 -0.152524)
(0.636908 0.112526 -0.611037)
(-0.284028 0.699821 -0.417625)
(0.0834889 0.574431 -0.280863)
(0.22982 0.316516 -0.241722)
(0.233706 0.0662677 -0.200408)
(0.143166 -0.0930191 -0.172232)
(0.0388201 -0.113895 -0.168128)
(-0.00351379 -0.0183538 -0.180978)
(0.0398741 0.1145 -0.190592)
(0.130979 0.202151 -0.183604)
(0.205084 0.205577 -0.159614)
(0.214012 0.141255 -0.126385)
(0.152974 0.0594203 -0.0979079)
(0.0577745 0.00917263 -0.0838728)
(-0.0250456 0.0124701 -0.0847311)
(-0.0659639 0.0604461 -0.0953905)
(-0.0615766 0.12246 -0.109472)
(-0.0304168 0.160899 -0.121218)
(-0.00518193 0.150448 -0.12532)
(-0.0195691 0.098542 -0.120928)
(-0.0812061 0.0501287 -0.118939)
(-0.154152 0.0538802 -0.131683)
(-0.182486 0.12077 -0.158616)
(-0.138756 0.211605 -0.184673)
(-0.051151 0.266318 -0.191058)
(0.0234643 0.246687 -0.17376)
(0.0552858 0.153998 -0.144204)
(0.0647305 0.0244616 -0.119319)
(0.0940944 -0.0769469 -0.118402)
(0.188412 -0.060356 -0.177715)
(0.645774 0.0982334 -0.608817)
(-0.33754 0.696061 -0.4118)
(0.0590919 0.537868 -0.292538)
(0.216801 0.281953 -0.261056)
(0.223813 0.0382954 -0.218141)
(0.135752 -0.119253 -0.188114)
(0.0348977 -0.143618 -0.18404)
(-0.00311439 -0.0532807 -0.198152)
(0.0449805 0.0770967 -0.208848)
(0.140125 0.168152 -0.201131)
(0.216119 0.180668 -0.174116)
(0.223897 0.127255 -0.136899)
(0.159254 0.0535319 -0.105211)
(0.0598309 0.00577802 -0.0898571)
(-0.0258498 0.00643312 -0.0913781)
(-0.0673819 0.0496699 -0.103661)
(-0.0620431 0.108404 -0.118935)
(-0.0300877 0.147034 -0.130482)
(-0.00571901 0.139397 -0.133414)
(-0.0224939 0.0897723 -0.128548)
(-0.0865616 0.0400718 -0.127442)
(-0.160404 0.0383313 -0.142456)
(-0.187313 0.0980209 -0.172287)
(-0.140854 0.184264 -0.200456)
(-0.0520218 0.239066 -0.207469)
(0.0192504 0.222055 -0.18977)
(0.0423927 0.129388 -0.160652)
(0.0412468 -0.00690369 -0.138419)
(0.0660887 -0.12013 -0.140901)
(0.170587 -0.111197 -0.196122)
(0.639529 0.0651776 -0.595942)
(-0.370738 0.650276 -0.385411)
(0.035472 0.481562 -0.291862)
(0.19754 0.236583 -0.270932)
(0.207036 0.00248296 -0.229707)
(0.124818 -0.152194 -0.200047)
(0.0317509 -0.180701 -0.19628)
(0.000424533 -0.0977513 -0.210323)
(0.0525073 0.0282944 -0.22046)
(0.148888 0.122777 -0.211405)
(0.223961 0.146373 -0.182252)
(0.229474 0.10684 -0.142849)
(0.162213 0.0436063 -0.109634)
(0.0608084 -0.000841257 -0.0937636)
(-0.0255227 -0.003455 -0.0956703)
(-0.0664505 0.033683 -0.108566)
(-0.0603212 0.0877368 -0.1239)
(-0.0288935 0.125633 -0.134633)
(-0.00697081 0.120896 -0.13663)
(-0.0266438 0.074737 -0.132049)
(-0.091851 0.0246455 -0.132367)
(-0.164286 0.0165068 -0.149143)
(-0.188312 0.0663038 -0.180259)
(-0.13982 0.14518 -0.20874)
(-0.0522001 0.199415 -0.215536)
(0.0132149 0.186809 -0.197933)
(0.026313 0.096724 -0.170436)
(0.0142459 -0.0449988 -0.151873)
(0.034225 -0.170782 -0.158261)
(0.146913 -0.172275 -0.210097)
(0.619458 0.0169348 -0.576216)
(-0.389146 0.567552 -0.349728)
(0.01301 0.410082 -0.283558)
(0.17398 0.183871 -0.27406)
(0.185476 -0.0388882 -0.236668)
(0.111361 -0.190283 -0.208943)
(0.0288725 -0.223473 -0.205816)
(0.00578669 -0.149393 -0.219105)
(0.0614578 -0.028932 -0.227712)
(0.15729 0.0690073 -0.216908)
(0.229579 0.10508 -0.186126)
(0.232021 0.0815291 -0.145643)
(0.162724 0.0304776 -0.111976)
(0.0608308 -0.0100697 -0.0961445)
(-0.0245884 -0.0164067 -0.0983031)
(-0.0639902 0.0136268 -0.111187)
(-0.057105 0.0619857 -0.125876)
(-0.0270212 0.0985283 -0.135444)
(-0.00848645 0.096792 -0.136676)
(-0.0313251 0.0548697 -0.132775)
(-0.0968949 0.00491065 -0.134739)
(-0.166576 -0.0103707 -0.152912)
(-0.18686 0.0275763 -0.184357)
(-0.136714 0.0971245 -0.212111)
(-0.0517333 0.150397 -0.218148)
(0.0062056 0.14358 -0.200833)
(0.00809842 0.0580219 -0.175568)
(-0.0155946 -0.0880934 -0.161268)
(-0.00127343 -0.226959 -0.171957)
(0.117454 -0.240748 -0.221266)
(0.586502 -0.0416172 -0.552174)
(-0.397948 0.455827 -0.313942)
(-0.00832534 0.328588 -0.271003)
(0.147533 0.127437 -0.27218)
(0.160802 -0.0831376 -0.239939)
(0.0962338 -0.231336 -0.21527)
(0.0259337 -0.269592 -0.213142)
(0.0119513 -0.205218 -0.225435)
(0.0709739 -0.0910759 -0.232028)
(0.165202 0.0102811 -0.219244)
(0.233576 0.0595729 -0.187138)
(0.232428 0.0531925 -0.146232)
(0.16144 0.0152976 -0.112782)
(0.0600269 -0.0210047 -0.0973621)
(-0.0234144 -0.0313494 -0.0997238)
(-0.0606214 -0.00904891 -0.112237)
(-0.052938 0.0329904 -0.125879)
(-0.0246308 0.0678233 -0.134116)
(-0.00993705 0.0691648 -0.134706)
(-0.0360055 0.0319015 -0.131644)
(-0.101514 -0.0176663 -0.135257)
(-0.167793 -0.040585 -0.154547)
(-0.183954 -0.0156827 -0.185792)
(-0.132354 0.0433717 -0.212296)
(-0.0507251 0.0955153 -0.217257)
(-0.00117725 0.0954605 -0.200252)
(-0.0113781 0.0157817 -0.177454)
(-0.0475555 -0.133961 -0.167691)
(-0.0400027 -0.286199 -0.18292)
(0.082397 -0.313198 -0.230517)
(0.541139 -0.104815 -0.524918)
(-0.40139 0.324942 -0.284809)
(-0.0286948 0.242358 -0.256345)
(0.119241 0.0707471 -0.266181)
(0.134324 -0.127432 -0.239805)
(0.0801713 -0.27275 -0.218992)
(0.0227659 -0.316239 -0.21822)
(0.0181554 -0.261847 -0.229558)
(0.0802977 -0.154357 -0.234004)
(0.172317 -0.049775 -0.219205)
(0.23617 0.0127943 -0.186033)
(0.231197 0.0238602 -0.145136)
(0.158796 -0.000609423 -0.112333)
(0.0585286 -0.0325671 -0.0975734)
(-0.0222102 -0.0470331 -0.100123)
(-0.0567684 -0.032721 -0.112072)
(-0.0482273 0.00273288 -0.124466)
(-0.0218702 0.0356997 -0.131333)
(-0.01111 0.0401404 -0.13138)
(-0.0402839 0.00768221 -0.12917)
(-0.105494 -0.0413876 -0.134281)
(-0.168186 -0.0721156 -0.154423)
(-0.180215 -0.0607008 -0.185171)
(-0.127333 -0.012574 -0.210219)
(-0.0493504 0.0384392 -0.213964)
(-0.00858163 0.0457023 -0.197236)
(-0.0314071 -0.0272944 -0.176935)
(-0.0808446 -0.180103 -0.171739)
(-0.0813386 -0.345691 -0.191536)
(0.0420636 -0.385842 -0.237986)
(0.483287 -0.16671 -0.494047)
(-0.402343 0.185736 -0.266437)
(-0.0481399 0.156473 -0.240607)
(0.0899613 0.0169552 -0.256186)
(0.107106 -0.168951 -0.235933)
(0.0638222 -0.311686 -0.219526)
(0.0193422 -0.360305 -0.22042)
(0.0238485 -0.31569 -0.231004)
(0.0887274 -0.214906 -0.233425)
(0.178121 -0.107526 -0.216804)
(0.237191 -0.0323252 -0.182934)
(0.228441 -0.00442943 -0.142462)
(0.155012 -0.0158712 -0.110653)
(0.0564762 -0.0436007 -0.0967196)
(-0.0210302 -0.0621202 -0.0994257)
(-0.0526714 -0.0556937 -0.110684)
(-0.0432656 -0.0267823 -0.121749)
(-0.0188931 0.00429226 -0.127303)
(-0.0119014 0.0117669 -0.126916)
(-0.0438583 -0.0159522 -0.125495)
(-0.108555 -0.0644714 -0.131831)
(-0.167721 -0.1028 -0.152493)
(-0.175909 -0.104584 -0.182497)
(-0.122057 -0.0671619 -0.206031)
(-0.0478763 -0.017193 -0.208573)
(-0.0159034 -0.00250171 -0.192154)
(-0.0514215 -0.0685182 -0.174317)
(-0.114552 -0.223929 -0.173534)
(-0.124372 -0.402398 -0.197636)
(-0.00304117 -0.454685 -0.243024)
(0.412305 -0.221541 -0.457654)
(-0.402059 0.0491702 -0.26023)
(-0.0664004 0.0756072 -0.223785)
(0.0605131 -0.0311756 -0.241612)
(0.0800595 -0.205024 -0.227369)
(0.0477882 -0.345261 -0.215681)
(0.0157612 -0.398589 -0.218457)
(0.0286487 -0.363137 -0.22854)
(0.0955767 -0.268932 -0.229258)
(0.181879 -0.159477 -0.211296)
(0.23608 -0.0730053 -0.17737)
(0.223905 -0.0297593 -0.137916)
(0.150117 -0.029184 -0.107502)
(0.0540287 -0.0529695 -0.0945185)
(-0.0197755 -0.0752724 -0.0972798)
(-0.0484026 -0.0762892 -0.107699)
(-0.0382563 -0.0536237 -0.117408)
(-0.015878 -0.0244045 -0.12179)
(-0.0123111 -0.0140762 -0.121129)
(-0.0464989 -0.0372904 -0.12041)
(-0.110327 -0.085189 -0.127581)
(-0.166081 -0.130488 -0.148268)
(-0.170967 -0.144469 -0.177162)
(-0.116769 -0.116942 -0.199128)
(-0.046686 -0.0679226 -0.200628)
(-0.0232909 -0.0461822 -0.184742)
(-0.0709762 -0.105398 -0.169413)
(-0.147599 -0.262924 -0.172729)
(-0.167822 -0.453194 -0.200466)
(-0.0521339 -0.515692 -0.244149)
(0.327099 -0.264202 -0.412402)
(-0.400113 -0.0745122 -0.26497)
(-0.0828144 0.00384176 -0.204905)
(0.0317935 -0.071344 -0.22119)
(0.0540282 -0.233282 -0.212504)
(0.0326572 -0.370779 -0.205602)
(0.0122347 -0.428054 -0.210321)
(0.0323072 -0.400795 -0.220121)
(0.100143 -0.312934 -0.219618)
(0.182616 -0.202455 -0.201161)
(0.231898 -0.106769 -0.168274)
(0.216983 -0.0504676 -0.130819)
(0.143964 -0.0394324 -0.102392)
(0.0513781 -0.0596629 -0.0904591)
(-0.0181945 -0.0852492 -0.0930403)
(-0.0438834 -0.0929492 -0.102364)
(-0.0333381 -0.0760356 -0.110689)
(-0.0130451 -0.0486305 -0.114129)
(-0.0124399 -0.0357685 -0.113445)
(-0.0480298 -0.0548557 -0.113365)
(-0.11033 -0.102007 -0.12086)
(-0.162661 -0.153204 -0.140803)
(-0.165005 -0.177693 -0.167924)
(-0.111582 -0.15873 -0.188131)
(-0.0463053 -0.110626 -0.188921)
(-0.0311552 -0.0827567 -0.17413)
(-0.0897353 -0.135819 -0.161569)
(-0.178689 -0.29483 -0.168512)
(-0.209943 -0.495041 -0.198639)
(-0.104028 -0.565008 -0.23898)
(0.226317 -0.290686 -0.353651)
(-0.394529 -0.17658 -0.277051)
(-0.0963069 -0.0555567 -0.182087)
(0.00483587 -0.101849 -0.19295)
(0.0298486 -0.251893 -0.189031)
(0.0190283 -0.386052 -0.1867)
(0.00907715 -0.446179 -0.193206)
(0.0346824 -0.425826 -0.202825)
(0.101691 -0.344002 -0.201723)
(0.179127 -0.233855 -0.184078)
(0.22335 -0.131643 -0.153977)
(0.206751 -0.0653076 -0.120111)
(0.136265 -0.0458219 -0.0945921)
(0.0487654 -0.0629194 -0.0837995)
(-0.015886 -0.0910367 -0.0857524)
(-0.0389018 -0.104373 -0.0935249)
(-0.0286073 -0.0925758 -0.100392)
(-0.0106711 -0.0669853 -0.103223)
(-0.0124891 -0.0520646 -0.10292)
(-0.0483186 -0.0675353 -0.103491)
(-0.10797 -0.113752 -0.110657)
(-0.156582 -0.169361 -0.128682)
(-0.157347 -0.202027 -0.152869)
(-0.106508 -0.189839 -0.170858)
(-0.0474234 -0.142733 -0.171473)
(-0.0401804 -0.110228 -0.158859)
(-0.107464 -0.158242 -0.149703)
(-0.206274 -0.317878 -0.159617)
(-0.248448 -0.525263 -0.190085)
(-0.157004 -0.599299 -0.224157)
(0.108623 -0.298578 -0.275625)
(-0.382075 -0.250553 -0.290839)
(-0.105461 -0.10044 -0.152584)
(-0.0191829 -0.121863 -0.154198)
(0.00837803 -0.259935 -0.153896)
(0.00752281 -0.389859 -0.155601)
(0.00669341 -0.451461 -0.163454)
(0.0357229 -0.436447 -0.172792)
(0.0994571 -0.360276 -0.171841)
(0.170008 -0.252037 -0.156894)
(0.208835 -0.146454 -0.132202)
(0.192018 -0.0736527 -0.104372)
(0.126627 -0.048036 -0.0831514)
(0.0464939 -0.0623799 -0.0735723)
(-0.0123081 -0.0920255 -0.0741382)
(-0.0331346 -0.10972 -0.0796064)
(-0.0241375 -0.10232 -0.0848607)
(-0.00909676 -0.0786137 -0.0875492)
(-0.0127571 -0.0622585 -0.0882505)
(-0.0472743 -0.0747467 -0.0896042)
(-0.102555 -0.119816 -0.0956255)
(-0.14672 -0.178026 -0.110012)
(-0.147057 -0.21601 -0.129389)
(-0.101479 -0.208441 -0.144281)
(-0.0508988 -0.162552 -0.145514)
(-0.051318 -0.127456 -0.136898)
(-0.124026 -0.171941 -0.13234)
(-0.228551 -0.331075 -0.144339)
(-0.280468 -0.541958 -0.17201)
(-0.208706 -0.616267 -0.195269)
(-0.0270146 -0.287615 -0.171603)
(-0.358706 -0.292888 -0.299154)
(-0.108668 -0.130222 -0.112852)
(-0.0389864 -0.131913 -0.101499)
(-0.00950645 -0.257966 -0.10327)
(-0.00122297 -0.3826 -0.108125)
(0.00555727 -0.444115 -0.116534)
(0.0354558 -0.432649 -0.125204)
(0.092673 -0.361632 -0.125276)
(0.153729 -0.256899 -0.115615)
(0.18655 -0.151249 -0.100074)
(0.171419 -0.0757694 -0.081845)
(0.114597 -0.0464258 -0.0669318)
(0.0449327 -0.0582822 -0.0586022)
(-0.00680493 -0.0882597 -0.0565962)
(-0.0261779 -0.108905 -0.0586068)
(-0.019995 -0.105168 -0.0619785)
(-0.0087219 -0.0834803 -0.0651656)
(-0.0136267 -0.0664182 -0.0677868)
(-0.0448513 -0.0766597 -0.0702398)
(-0.0933297 -0.120421 -0.0741148)
(-0.131771 -0.179293 -0.0824347)
(-0.133009 -0.219448 -0.0941671)
(-0.0963737 -0.214126 -0.104505)
(-0.0577368 -0.169785 -0.107475)
(-0.0657479 -0.134533 -0.105673)
(-0.139375 -0.177301 -0.107675)
(-0.243507 -0.334572 -0.120576)
(-0.302615 -0.544579 -0.140873)
(-0.256123 -0.615422 -0.146806)
(-0.181028 -0.260439 -0.0341519)
(-0.320144 -0.303597 -0.293865)
(-0.104343 -0.146517 -0.0586601)
(-0.053285 -0.134627 -0.0307091)
(-0.0229374 -0.248863 -0.0325872)
(-0.00658492 -0.36719 -0.0393445)
(0.00617389 -0.427039 -0.0471071)
(0.0339742 -0.417212 -0.0543379)
(0.0806269 -0.350659 -0.0564221)
(0.128772 -0.250707 -0.0554671)
(0.154662 -0.147891 -0.0541772)
(0.143558 -0.0731695 -0.0505001)
(0.0997396 -0.0422344 -0.0446624)
(0.0445045 -0.051704 -0.0375477)
(0.00134019 -0.0807767 -0.0312318)
(-0.0175926 -0.103024 -0.0281264)
(-0.0162481 -0.102278 -0.0292081)
(-0.00998291 -0.0827594 -0.0337557)
(-0.015538 -0.0657099 -0.0395849)
(-0.0410549 -0.0744859 -0.0436938)
(-0.0795473 -0.11695 -0.0442203)
(-0.110379 -0.174771 -0.0431857)
(-0.113998 -0.214105 -0.0432295)
(-0.0910516 -0.208712 -0.0468087)
(-0.0690181 -0.166258 -0.053041)
(-0.0847752 -0.133299 -0.0621396)
(-0.153531 -0.176162 -0.0736571)
(-0.249039 -0.330106 -0.0859113)
(-0.311181 -0.534731 -0.0924355)
(-0.295695 -0.599191 -0.0722041)
(-0.352971 -0.223637 0.144584)
(-0.262577 -0.286804 -0.266597)
(-0.0911868 -0.154011 0.0146843)
(-0.0608948 -0.135806 0.0628464)
(-0.0311124 -0.238968 0.063271)
(-0.00800127 -0.350255 0.0562156)
(0.00901839 -0.407083 0.0507499)
(0.0314173 -0.397064 0.0461949)
(0.062753 -0.333984 0.0410058)
(0.0938482 -0.239221 0.0288905)
(0.111585 -0.140843 0.00927324)
(0.107233 -0.0690521 -0.00815705)
(0.0817183 -0.0378569 -0.0150301)
(0.0456461 -0.044858 -0.00898299)
(0.0128108 -0.0720558 0.00405255)
(-0.00697119 -0.0949196 0.0145261)
(-0.0129699 -0.096662 0.0162956)
(-0.0133042 -0.0793638 0.00925996)
(-0.0189354 -0.0628279 -0.00150597)
(-0.0359471 -0.0708474 -0.00812079)
(-0.0605794 -0.112369 -0.00389168)
(-0.0813346 -0.168215 0.0107731)
(-0.0889313 -0.204648 0.0278828)
(-0.085392 -0.197379 0.0341632)
(-0.0857619 -0.156946 0.022662)
(-0.109637 -0.12802 -0.00294662)
(-0.166532 -0.172224 -0.0281271)
(-0.243153 -0.321515 -0.0377392)
(-0.302526 -0.517195 -0.0219175)
(-0.323621 -0.574431 0.0359117)
(-0.541229 -0.18922 0.372391)
(-0.183437 -0.251234 -0.20958)
(-0.0684631 -0.16162 0.111893)
(-0.0608717 -0.145866 0.183952)
(-0.0333685 -0.239605 0.189528)
(-0.00504209 -0.34367 0.184099)
(0.0144463 -0.396685 0.183035)
(0.0279354 -0.385044 0.182907)
(0.0387537 -0.324009 0.173422)
(0.0481889 -0.233154 0.142888)
(0.0563606 -0.138185 0.0940793)
(0.0617473 -0.068844 0.0472921)
(0.0604132 -0.0371378 0.0231731)
(0.0487381 -0.0414458 0.0284515)
(0.028119 -0.0665885 0.0513559)
(0.00597253 -0.0899336 0.072085)
(-0.0102329 -0.0939634 0.077423)
(-0.0190225 -0.0786297 0.0664823)
(-0.0241885 -0.0625425 0.0485775)
(-0.0296458 -0.0702353 0.038286)
(-0.0360661 -0.111733 0.0488718)
(-0.0438641 -0.166324 0.0824744)
(-0.0571008 -0.199873 0.123718)
(-0.0793537 -0.190172 0.143924)
(-0.108712 -0.151313 0.124621)
(-0.141201 -0.126243 0.0752447)
(-0.178341 -0.171522 0.0309756)
(-0.224269 -0.315349 0.0265137)
(-0.273691 -0.501228 0.0756345)
(-0.336375 -0.554433 0.185137)
(-0.742645 -0.1767 0.656102)
(-0.0821885 -0.210669 -0.116614)
(-0.0361941 -0.184044 0.236967)
(-0.0526324 -0.181785 0.336729)
(-0.0292639 -0.269126 0.350707)
(0.00251101 -0.366635 0.349109)
(0.0225815 -0.416055 0.354959)
(0.0236375 -0.402261 0.361481)
(0.00873421 -0.341221 0.346413)
(-0.00810825 -0.250104 0.291207)
(-0.0108992 -0.15293 0.203454)
(0.00726021 -0.0808981 0.117536)
(0.0360403 -0.0457458 0.0708413)
(0.0540088 -0.0471061 0.0758169)
(0.0474349 -0.0716159 0.112434)
(0.0212989 -0.0968773 0.146891)
(-0.00809641 -0.103481 0.156654)
(-0.0272907 -0.0892188 0.140123)
(-0.0314915 -0.0724177 0.112442)
(-0.022315 -0.0796117 0.0970105)
(-0.00608509 -0.122865 0.115722)
(0.00203316 -0.179803 0.174499)
(-0.0185117 -0.214327 0.248223)
(-0.0730447 -0.203981 0.287288)
(-0.138072 -0.165082 0.257147)
(-0.179595 -0.139924 0.175235)
(-0.188727 -0.183057 0.105326)
(-0.191576 -0.32167 0.109096)
(-0.223151 -0.502294 0.204755)
(-0.331394 -0.561649 0.382233)
(-0.95191 -0.216093 1.00011)
(0.03907 -0.184562 0.0162663)
(0.00491101 -0.244179 0.39299)
(-0.0360082 -0.270129 0.524551)
(-0.018646 -0.356156 0.550643)
(0.0145959 -0.449028 0.555442)
(0.0332041 -0.496711 0.571083)
(0.0185246 -0.481808 0.586773)
(-0.0266963 -0.417753 0.564618)
(-0.0737981 -0.317502 0.477626)
(-0.088636 -0.205064 0.339909)
(-0.0549081 -0.117622 0.20385)
(0.00924767 -0.0718249 0.128608)
(0.0614424 -0.0701366 0.133871)
(0.0704354 -0.0982399 0.188599)
(0.0387534 -0.12949 0.240747)
(-0.00659319 -0.13971 0.255924)
(-0.0379938 -0.124495 0.231901)
(-0.0407723 -0.103928 0.191459)
(-0.0141457 -0.109387 0.169228)
(0.0287133 -0.157505 0.198059)
(0.0552887 -0.225097 0.289037)
(0.0258176 -0.270813 0.404634)
(-0.0667904 -0.265471 0.468059)
(-0.173263 -0.222838 0.423576)
(-0.223857 -0.187201 0.29923)
(-0.197155 -0.219966 0.196461)
(-0.145353 -0.355563 0.212342)
(-0.151528 -0.544906 0.369895)
(-0.307738 -0.632028 0.63314)
(-1.16056 -0.352887 1.4058)
(0.175584 -0.199603 0.193241)
(0.0541937 -0.377993 0.588527)
(-0.0111393 -0.453112 0.758147)
(-0.00167226 -0.546278 0.801708)
(0.0308457 -0.638549 0.816885)
(0.0456926 -0.688995 0.846081)
(0.0124238 -0.676427 0.873446)
(-0.0664579 -0.604589 0.841486)
(-0.146489 -0.478562 0.713025)
(-0.173824 -0.325706 0.510968)
(-0.122252 -0.197964 0.310797)
(-0.0188847 -0.127562 0.199377)
(0.0707585 -0.123096 0.205469)
(0.0962845 -0.163653 0.283717)
(0.0577592 -0.209292 0.358614)
(-0.00572773 -0.225396 0.380594)
(-0.050742 -0.205302 0.346741)
(-0.0516762 -0.174785 0.289816)
(-0.00532789 -0.175561 0.258965)
(0.0671194 -0.233908 0.300994)
(0.113734 -0.328131 0.433297)
(0.0737933 -0.405429 0.602214)
(-0.061167 -0.416738 0.696175)
(-0.212898 -0.36309 0.632697)
(-0.27189 -0.296117 0.454068)
(-0.202776 -0.30244 0.310615)
(-0.0870542 -0.440875 0.344943)
(-0.0617777 -0.668852 0.58466)
(-0.266256 -0.823937 0.954939)
(-1.35551 -0.658179 1.88381)
(0.320882 -0.294294 0.434642)
(0.113032 -0.646489 0.874412)
(0.0218933 -0.803268 1.10126)
(0.0212337 -0.918527 1.1761)
(0.0506345 -1.01862 1.21264)
(0.0590976 -1.08095 1.26362)
(0.00496541 -1.07748 1.30506)
(-0.109285 -0.989252 1.25418)
(-0.223234 -0.806867 1.06074)
(-0.2627 -0.567414 0.761465)
(-0.191649 -0.353841 0.466597)
(-0.0470373 -0.233415 0.301895)
(0.0815638 -0.226966 0.308804)
(0.123908 -0.296628 0.421382)
(0.0775855 -0.372496 0.530011)
(-0.00550431 -0.398931 0.562303)
(-0.0650376 -0.366766 0.513855)
(-0.0637244 -0.314739 0.432678)
(0.00397016 -0.30521 0.390475)
(0.107679 -0.38361 0.454674)
(0.174648 -0.53379 0.649053)
(0.122726 -0.679922 0.894389)
(-0.0569402 -0.72881 1.02925)
(-0.255217 -0.650379 0.936166)
(-0.321071 -0.513944 0.680444)
(-0.204703 -0.465621 0.483923)
(-0.0189041 -0.620346 0.554153)
(0.0417688 -0.94503 0.921069)
(-0.208502 -1.24007 1.44232)
(-1.51696 -1.25248 2.52571)
(0.467659 -0.528846 0.825534)
(0.187447 -1.16633 1.45704)
(0.0632556 -1.46058 1.8105)
(0.0492091 -1.62731 1.96278)
(0.0729959 -1.75404 2.0579)
(0.0723061 -1.8465 2.15638)
(-0.00425682 -1.86336 2.21511)
(-0.153939 -1.74085 2.11193)
(-0.301228 -1.44358 1.77556)
(-0.351731 -1.03058 1.27236)
(-0.260143 -0.646723 0.785035)
(-0.0738824 -0.429105 0.511762)
(0.0936216 -0.421914 0.517606)
(0.152409 -0.551589 0.697494)
(0.0975792 -0.687622 0.874707)
(-0.0059826 -0.733206 0.9291)
(-0.0805297 -0.67566 0.851314)
(-0.0765887 -0.580452 0.721601)
(0.0135211 -0.55061 0.66107)
(0.149043 -0.668829 0.779091)
(0.235556 -0.930172 1.10285)
(0.17016 -1.21313 1.49566)
(-0.0548604 -1.33593 1.70037)
(-0.298784 -1.2061 1.5435)
(-0.369374 -0.931088 1.14212)
(-0.202717 -0.780017 0.858644)
(0.056433 -0.981789 1.02338)
(0.154909 -1.51601 1.65992)
(-0.134845 -2.08298 2.47168)
(-1.61549 -2.35588 3.72508)
(3.264 5.50739 10.1477)
(0.173352 5.85817 8.28196)
(-1.01792 4.48688 6.0062)
(-1.05263 2.5692 3.4247)
(-0.283135 1.31497 1.75218)
(0.660665 1.27342 1.80658)
(1.10495 2.17855 3.2192)
(0.802948 3.22296 4.70493)
(0.0530263 3.62052 5.138)
(-0.622521 3.11565 4.27986)
(-0.841568 2.06894 2.71345)
(-0.562496 1.09337 1.36809)
(-0.0493406 0.648889 0.866402)
(0.380224 0.834901 1.21022)
(0.557574 1.42608 2.0274)
(0.448255 2.05468 2.88875)
(0.0899505 2.36064 3.39968)
(-0.352837 2.16498 3.22186)
(-0.528878 1.66369 2.39)
(-0.199096 1.32481 1.70186)
(0.417909 1.61448 2.0294)
(0.794463 2.53658 3.44876)
(0.572931 3.5455 5.04921)
(-0.0568857 4.01271 5.68458)
(-0.515777 3.75475 5.08154)
(-0.408401 3.14665 4.02997)
(0.127877 2.68685 3.47193)