/*--------------------------------*- C++ -*----------------------------------*\
| =========                 |                                                 |
| \\      /  F ield         | OpenFOAM: The Open Source CFD Toolbox           |
|  \\    /   O peration     | Version:  2106                                  |
|   \\  /    A nd           | Website:  www.openfoam.com                      |
|    \\/     M anipulation  |                                                 |
\*---------------------------------------------------------------------------*/
FoamFile
{
    version     2.0;
    format      ascii;
    arch        "LSB;label=32;scalar=64";
    class       volSymmTensorField;
    location    "1148";
    object      epsilon;
}
// * * * * * * * * * * * * * * * * * * * * * * * * * * * * * * * * * * * * * //

dimensions      [0 0 0 0 0 0 0];

internalField   nonuniform List<symmTensor> 
9000
(
(-13607.3 -345.287 5434.61 -21567 4954.53 69470)
(-3041.6 45.4713 -782.888 -20477.6 5771.32 56535.4)
(-695.193 45.1054 -5106.61 -15627.2 4470.93 41353.7)
(532.294 36.7065 -5071.06 -9391.17 2562.67 23711.7)
(1154.52 15.4712 -1563.01 -5259.17 1306.89 12244.4)
(935.649 -11.5932 2692.29 -5281.58 1244.12 12547)
(109.042 -20.6517 4707.73 -8597.74 2116.33 22112.9)
(-689.234 -5.7627 3380 -12139 3152.62 32238.6)
(-940.979 17.6849 47.5988 -13176.8 3572.83 35242.2)
(-585.298 34.4681 -2935.4 -11089.8 3098.46 29435.9)
(51.0362 35.8745 -3861.9 -7256.42 2075.31 18765.2)
(536.988 22.1991 -2568.1 -3921.13 1101.59 9549.55)
(636.664 4.4431 -246.472 -2621.96 640.171 6056.85)
(409.946 -7.71148 1685.16 -3413.93 814.398 8365.28)
(44.5369 -13.9995 2478.26 -5409.66 1408.75 13957.8)
(-314.431 -16.8299 1989.5 -7525.68 2038.41 19857.7)
(-526.096 -12.599 401.045 -8764.22 2324.22 23315.4)
(-390.693 2.03992 -1537.52 -8340.27 2108.14 22062.2)
(123.474 12.6606 -2268.51 -6402.2 1627.88 16446.7)
(639.51 2.45922 -748.196 -4862.86 1329.89 11859.1)
(660.268 -21.2466 2036.66 -5756.22 1634.05 14151.4)
(99.9459 -35.7135 3722.8 -9228.83 2529.09 23806.1)
(-567.948 -24.3095 2716.17 -13117.6 3500.56 34669.1)
(-732.545 4.80639 -133.362 -14723.2 3972.96 39033.6)
(-265.319 26.0382 -2252.94 -13388.1 3767.15 35041.3)
(353.562 24.1904 -1915.9 -10937.3 3212.77 27966.1)
(530.385 3.66394 197.285 -9551.31 2764.61 24126.8)
(90.2396 -34.5792 1839.38 -9448.31 2550.78 24307.4)
(-551.384 -122.23 1190.99 -8613.65 2114.17 22960.3)
(-2506.22 21.8883 -487.909 -4063.33 402.133 12941.1)
(-10929.2 -562.729 4851.78 -12795.6 5470.01 50709)
(-2577.81 325.501 -69.066 -11849 7878.58 39209.2)
(-566.773 494.095 -3320.45 -9166.42 6116.55 28468)
(403.853 450.279 -3360.6 -5655.1 3306.89 16395.9)
(892.033 181.284 -864.856 -3304.87 1481.95 8537.29)
(723.69 -146.359 2205.2 -3301.94 1332.69 8808.5)
(75.8258 -290.459 3642.26 -5167.31 2479.79 15510.3)
(-548.697 -169.766 2629.83 -7163.48 3957.18 22542.7)
(-742.493 88.6432 164.737 -7733.28 4679.71 24546.7)
(-461.298 301.464 -2032.72 -6517.19 4155.69 20407.4)
(37.6788 346.642 -2722.29 -4305.96 2815.87 12927.6)
(416.049 220.142 -1787.63 -2383.31 1446.86 6540.67)
(490.241 28.6418 -114.559 -1630.02 714.793 4196.8)
(312.508 -117.62 1260.49 -2083.01 902.609 5868.88)
(31.5166 -179.875 1816.23 -3234.16 1750.88 9766.8)
(-246.51 -161.922 1461.28 -4452.97 2649.92 13860)
(-419.037 -63.8397 298.659 -5159.5 2975.91 16295.3)
(-321.917 86.3448 -1172.35 -4914.39 2573.58 15459.6)
(83.8352 154.9 -1781.64 -3818.68 1978.97 11472)
(499.815 28.7341 -699.978 -2966.35 1701.75 8171.55)
(523.571 -210.016 1353.52 -3503.22 2164.36 9733.92)
(82.2197 -353.527 2615.09 -5501.9 3299.97 16525.9)
(-446.553 -257.226 1879.67 -7729.68 4498.89 24188.2)
(-569.437 3.99002 -217.208 -8656.93 5162.24 27223.8)
(-180.844 201.33 -1718.52 -7914.1 5049.54 24336.1)
(329.978 194.033 -1304.09 -6543.92 4417.88 19372)
(480.592 53.9721 507.551 -5788.08 3723.49 16878.6)
(127.258 -60.635 1995.9 -5731.53 3231.59 17238.3)
(-364.782 -116.09 1719.02 -5085.8 2483.14 16060.8)
(-1446.67 200.957 159.899 -2313.07 -198.593 7257.04)
(-8569.63 -660.896 4104.48 -6333.46 4169.05 35939.9)
(-2042.46 421.736 571.87 -5785.17 7299.19 27026.1)
(-445.199 635.865 -1819.81 -4613.71 5595.04 19565.5)
(279.025 584.92 -1925.47 -2988.05 2811.91 11282.9)
(638.192 235.853 -278.497 -1877.7 1029.94 5882.36)
(519.297 -195.134 1785.32 -1860.25 866.375 6082.71)
(47.5656 -382.652 2742.46 -2718.41 1941.29 10737.8)
(-408.004 -216.716 2021.08 -3648.2 3376.83 15637.9)
(-548.245 130.868 305.473 -3903.35 4146.69 17032.8)
(-342.224 413.959 -1226.22 -3297.79 3738.72 14128.8)
(21.4002 470.247 -1726.05 -2216.27 2527.87 8907.86)
(295.251 296.196 -1114.41 -1273.98 1235.62 4465.63)
(346.642 37.2941 -2.4821 -895.512 504.1 2852.24)
(217.487 -158.229 901.916 -1113.54 651.488 4047.68)
(16.832 -240.877 1255.67 -1683.29 1454.61 6789.92)
(-183.867 -217.984 999.927 -2280.66 2308.65 9647.28)
(-315.198 -88.7958 184.075 -2606.2 2584.49 11316.1)
(-251.168 113.287 -875.387 -2467.36 2161.28 10687.8)
(47.4761 206.85 -1357.11 -1960.78 1627.05 7893.22)
(361.316 36.3786 -651.564 -1596.5 1413.13 5600.33)
(386.703 -285.983 757.853 -1890.08 1850.91 6702)
(65.0793 -479.249 1642.64 -2857.93 2859.92 11444.7)
(-323.002 -347.702 1151.57 -3918.88 3915.28 16787.2)
(-404.961 6.13955 -271.467 -4373.11 4539.24 18913.8)
(-98.5505 269.064 -1230.05 -4055.57 4504.07 16931.9)
(300.196 249.697 -769.157 -3456.88 3948.94 13565.7)
(417.806 53.7606 744.266 -3151.31 3220.23 11995.5)
(135.529 -87.1329 2039.98 -3128.89 2644.34 12349.6)
(-169.585 -105.044 1954.27 -2616.95 1978.53 11039.8)
(-446.557 285.343 692.351 -839.288 -419.687 2222.5)
(-6178.01 -690.806 3257.72 -2461.43 3142.47 23718.5)
(-1489.77 390.936 1083.36 -2466.89 6398.43 17708.3)
(-327.042 611.158 -526.602 -2126.76 4770.22 12835.7)
(164.272 572.767 -677.594 -1494.49 2167.54 7351.27)
(402.638 231.655 233.32 -1044.07 524.988 3767.3)
(329.864 -196.882 1415.25 -1019.22 374.616 3901.08)
(24.2464 -380.23 1957.17 -1336.22 1357.19 7011.47)
(-273.19 -205.062 1504.4 -1699.19 2683.57 10327.4)
(-365.163 152.181 457.034 -1796.87 3434.74 11303.4)
(-231.602 439.4 -486.796 -1528.31 3135.73 9361.15)
(3.72932 491.823 -824.171 -1058.44 2096.9 5854.35)
(179.479 308.074 -507.127 -641.112 952.974 2867.01)
(210.755 39.3528 101.695 -457.325 286.806 1780.13)
(127.927 -161.913 587.748 -546.558 400.149 2605.68)
(1.71609 -246.63 760.413 -806.841 1107.22 4485.83)
(-127.297 -224.275 585.042 -1070.72 1865.56 6418.79)
(-218.155 -94.2052 68.2491 -1180.43 2105.75 7489.49)
(-182.693 111.375 -623.104 -1083.59 1722.67 6986.48)
(14.4719 206.292 -983.76 -899.958 1244.73 5106.38)
(229.76 30.2491 -612.512 -811.002 1048.43 3605.04)
(256.14 -300.424 220.03 -978.431 1415.46 4372.49)
(49.3114 -496.86 767.621 -1382.82 2276.71 7552.24)
(-203.698 -358.714 499.335 -1800.78 3185.42 11118)
(-247.508 6.08736 -314.651 -1997.7 3737.81 12566)
(-22.3863 271.096 -788.578 -1923.34 3720.41 11314)
(266.614 239.106 -298.567 -1757.55 3204.07 9195.69)
(350.213 28.5393 928.57 -1697.79 2468.05 8314.33)
(134.151 -102.933 2024.61 -1689.97 1877.64 8615.55)
(23.7664 -65.5602 2082.16 -1261 1424.6 7112.47)
(507.439 321.894 1175.14 63.5505 -285.772 -2026.58)
(-3952.91 -678.806 2383.54 -152.285 3092.73 13692.1)
(-961.924 277.48 1428.29 -650.498 6054.8 10438)
(-213.034 481.313 539.29 -767.129 4343.61 7608.75)
(65.8517 468.053 369.622 -647.063 1789.68 4234.34)
(195.728 189.609 664.544 -542.114 193.038 2019.64)
(163.518 -169.215 1101.47 -519.009 60.2916 2105.76)
(5.94979 -318 1295.6 -557.495 1039.24 4051.21)
(-150.984 -157.168 1079.02 -625.193 2340.39 6172.89)
(-201.099 158.298 607.56 -641.184 3084.53 6843.27)
(-133.429 407.251 168.261 -551.512 2831.58 5648.27)
(-13.585 446.68 -31.7557 -405.147 1864.85 3457.25)
(74.2615 278.224 27.8445 -266.261 791.382 1583.57)
(88.0717 37.1355 199.186 -187.456 170.344 900.132)
(47.1438 -141.816 321.292 -209.958 273.728 1442.45)
(-12.6921 -216.56 334.899 -305.806 928.398 2661.86)
(-77.9644 -197.497 225.398 -390.377 1640.69 3885.58)
(-132.08 -85.3776 -37.8346 -382.45 1891.24 4496.93)
(-121.243 91.5975 -415.147 -305.21 1558.88 4088.35)
(-14.9396 171.36 -673.09 -290.245 1077.77 2901.61)
(111.694 14.8754 -589.657 -345.073 837.529 1998.27)
(139.179 -274.572 -251.217 -444.038 1145.64 2503.66)
(35.9308 -443.264 9.81281 -548.084 1957.69 4484.28)
(-95.5676 -317.244 -63.9528 -622.306 2838.73 6690.43)
(-106.133 4.43852 -353.43 -678.705 3361.78 7620.6)
(43.7703 229.455 -414.36 -730.783 3304 6930.53)
(232.28 184.948 91.5227 -795.864 2735.62 5768.59)
(285.074 -12.503 1059.8 -871.905 1949.54 5409.75)
(132.739 -112.242 1972.47 -884.706 1350.98 5659.21)
(205.185 -18.0151 2166.72 -530.669 1113.17 3997.87)
(1346.83 326.824 1608.42 550.747 109.422 -5419.95)
(-2029.25 -641.98 1541.35 1122.65 3805.04 5795.94)
(-488.452 120.993 1600.91 254.514 6168.39 4890.18)
(-106.277 296.086 1355.18 -87.9509 4254.73 3610.62)
(-12.1016 313.262 1193.51 -199.302 1644.01 1793.26)
(25.3502 125.954 1004.3 -255.242 17.2792 587.916)
(26.6067 -126.805 850.233 -240.565 -102.626 646.374)
(-7.14097 -223.996 771.151 -157.778 931.13 1743.12)
(-46.606 -90.0235 750.712 -89.3489 2272.86 2987.81)
(-62.2982 155.257 748.897 -63.7373 3029.05 3436.06)
(-50.9569 342.248 720.201 -54.9886 2781.17 2803.94)
(-29.2331 363.415 630.98 -58.7823 1812.58 1598.39)
(-16.0216 224.005 478.131 -52.4472 744.937 561.413)
(-16.9508 31.6494 288.189 -28.2657 142.889 188.137)
(-22.1152 -108.667 108.048 -22.1141 250.528 521.898)
(-25.4919 -166.059 -11.7082 -38.3181 891.397 1243.26)
(-36.8959 -151.601 -68.5806 -34.5459 1601.49 1933.24)
(-60.3052 -68.0567 -126.76 28.5253 1892.17 2208.15)
(-70.4504 62.5546 -254.03 93.471 1607.09 1880.32)
(-40.4589 118.264 -434.663 34.4406 1085.66 1197.35)
(12.2421 -4.72396 -585.962 -80.5152 769.572 718.537)
(41.4604 -225.667 -644.171 -143.238 1035.63 1014.53)
(25.7442 -349.581 -609.608 -106.625 1869.31 2101.18)
(-3.90941 -245.906 -522.993 -20.248 2804.72 3301.69)
(12.1933 2.73384 -389.702 -5.57781 3334.93 3845.66)
(96.9273 164.017 -122.574 -107.978 3209.81 3563.99)
(199.49 106.315 386.504 -276.148 2534.6 3101.21)
(227.24 -63.5156 1133.57 -421.715 1661.24 3125.07)
(134.922 -121.368 1891.84 -463.311 1038.85 3333.66)
(367.153 23.1518 2223.13 -187.266 978.404 1577.41)
(2038.12 310.718 1979.05 732.364 615.269 -7961.62)
(-469.519 -591.164 775.201 1671.65 4887.16 -71.2255)
(-86.389 -45.75 1622.57 580.171 6455.02 824.774)
(-10.2892 96.2169 1923.96 163.465 4296.78 647.4)
(-68.5575 143.032 1791.31 -13.1315 1603.44 -66.7106)
(-105.287 54.1234 1249.29 -120.579 -76.1753 -556.763)
(-78.1173 -81.449 660.41 -117.832 -191.293 -509.878)
(-14.949 -121.053 383.917 -7.10469 907.305 -2.03524)
(37.5782 -17.4065 518.23 103.061 2309.16 626.481)
(48.3819 148.351 877.171 147.878 3088.04 919.449)
(14.31 265.146 1163 136.691 2836.43 694.907)
(-42.603 265.9 1157.59 88.7264 1845.34 199.961)
(-89.2884 159.918 839.022 51.5347 761.943 -230.198)
(-102.131 23.757 366.704 52.0155 165.338 -370.838)
(-78.42 -71.4293 -51.5721 63.9503 279.068 -183.577)
(-36.1132 -108.055 -277.219 75.9042 920.633 175.33)
(-4.45476 -98.421 -293.605 112.099 1645.94 479.102)
(-4.31367 -47.2833 -195.404 190.886 1984.74 522.543)
(-31.9869 31.2908 -138.597 246.584 1740.98 265.77)
(-61.9764 60.4955 -268.888 170.481 1172.98 -70.833)
(-66.2878 -24.4235 -600.735 45.8869 778.663 -270.364)
(-34.4651 -168.148 -955.449 -0.7787 1011.77 -140.28)
(19.1072 -241.834 -1085.56 78.509 1887.71 307.223)
(68.8218 -163.683 -873.967 213.254 2900.69 798.056)
(104.202 2.14894 -423.421 256.384 3453.81 1066.14)
(135.622 91.3687 83.4581 150.764 3262.47 1063.18)
(169.241 19.1236 582.395 -40.8005 2469.92 1081.27)
(178.791 -119.725 1147.68 -213.536 1492.74 1366.68)
(141.284 -135.016 1783.83 -287.382 825.006 1541.3)
(505.596 51.2922 2249.81 -92.0162 893.263 -246.062)
(2573.41 281.703 2277.43 694.611 1094.84 -9719.45)
(716.686 -532.651 114.833 1710.09 6012.18 -4104.47)
(237.477 -199.051 1530.13 545.611 6697.89 -2005.76)
(72.04 -89.6503 2271.37 154.598 4312.88 -1469.59)
(-105.132 -18.2038 2180.03 4.57334 1565.18 -1441.11)
(-197.413 -16.1424 1404.26 -94.3693 -154.018 -1447.59)
(-151.377 -41.0866 524.582 -104.694 -273.147 -1401.33)
(-17.5932 -25.0662 121.398 -17.0052 869.365 -1279.14)
(101.895 50.9949 372.909 82.376 2319.19 -1060.36)
(131.383 141.466 991.925 134.173 3124.44 -869.018)
(62.6275 190.961 1502.77 138.775 2882.35 -810.125)
(-53.6984 171.481 1555.44 108.164 1885.49 -814.021)
(-145.674 96.7001 1114.19 79.663 796.326 -822.097)
(-167.557 14.3414 433.283 75.7949 203.004 -794.732)
(-121.693 -36.5424 -162.205 80.9752 316.952 -705.419)
(-44.2999 -52.0516 -466.832 90.7392 955.626 -599.034)
(19.723 -46.6234 -453.378 125.989 1693.5 -561.064)
(36.2284 -26.6567 -243.96 197.606 2073.89 -664.971)
(-5.71121 2.76169 -63.9007 246.448 1866.11 -860.475)
(-79.6428 7.34336 -168.388 184.269 1264.54 -973.729)
(-124.276 -41.6639 -630.864 76.6699 806.582 -1006.52)
(-88.955 -112.552 -1189.97 32.6828 1008.11 -1005.56)
(15.9454 -138.668 -1427.98 97.8123 1912.25 -993.787)
(122.821 -84.2378 -1123.99 216.605 2986.55 -977.244)
(170.101 3.28678 -453.704 263.134 3563.02 -895.803)
(159.867 23.2041 210.347 180.337 3323.04 -721.41)
(141.376 -65.0965 684.819 11.2488 2431.39 -396.773)
(139.56 -177.271 1102.91 -161.983 1350.38 48.4003)
(150.992 -155.635 1646 -266.736 616.288 188.976)
(619.411 64.2478 2240.19 -151.329 762.695 -1576.41)
(2960.95 245.551 2499.81 510.396 1449.56 -10802.9)
(1554.02 -470.102 -423.462 1404.6 6951.46 -6569.42)
(483.846 -324.354 1364.29 306.76 6774.09 -3851.88)
(138.922 -245.071 2435.65 4.22487 4217.36 -2923.05)
(-125.055 -156.293 2388.91 -77.2938 1466.49 -2426.66)
(-255.329 -78.911 1479.28 -141.013 -263.773 -2124.11)
(-196.366 -9.94979 431.973 -164.257 -395.43 -2072.33)
(-15.3882 54.9298 -36.3162 -122.508 756.977 -2185)
(148.542 109.576 301.587 -58.6617 2228.18 -2220.01)
(189.506 136.997 1094.88 -5.74794 3060.09 -2088.29)
(95.543 128.819 1753.35 32.7714 2851.91 -1839.69)
(-62.926 90.8063 1840.87 50.7117 1884.82 -1519.6)
(-186.891 41.1681 1313.01 58.0458 816.31 -1247.69)
(-214.986 4.24571 487.196 61.233 231.236 -1104.71)
(-152.887 -7.85356 -231.63 54.0172 336.262 -1077.59)
(-50.0366 -3.96245 -590.62 45.4992 958.787 -1138.19)
(36.5587 -1.53858 -556.117 61.9477 1695.7 -1271.96)
(62.9597 -8.24714 -274.553 115.328 2104.32 -1459.98)
(9.74809 -20.1825 -22.6983 159.758 1928.73 -1604.53)
(-93.8377 -36.1317 -121.451 125.013 1314.42 -1584.87)
(-163.988 -55.3995 -672.225 44.7748 813.308 -1532.06)
(-124.38 -65.4021 -1358.03 -5.29516 979.148 -1629.64)
(15.8947 -51.1983 -1656.07 16.9409 1880.13 -1899.31)
(160.128 -15.7541 -1286.96 88.1543 2980.68 -2179.47)
(212.546 6.29058 -479.39 125.096 3572.95 -2215.73)
(170.76 -33.6824 270.607 76.7184 3308.73 -1937.91)
(115.001 -139.287 705.451 -47.5751 2349.74 -1437.81)
(107.933 -233.271 1002.38 -205.956 1174.7 -914.496)
(162.627 -183.777 1474.72 -337.428 356.296 -813.883)
(709.547 62.1785 2187.3 -297.746 531.995 -2518.96)
(3218.24 205.96 2647.01 241.565 1619.86 -11341.4)
(2087.68 -406.034 -836.069 888.312 7560.82 -7768.71)
(658.557 -414.841 1161.01 -25.637 6631.98 -4947.52)
(189.807 -363.587 2458.05 -204.511 3978.36 -3877.01)
(-132.133 -265.497 2451.96 -207.507 1277.21 -3113.68)
(-284.9 -131.441 1487.06 -230.492 -434.63 -2628.38)
(-217.607 10.599 371.039 -265.981 -586.78 -2568.87)
(-8.80453 115.381 -111.691 -275.57 539.95 -2810.16)
(180.688 156.027 289.482 -254.448 2003.08 -2986.38)
(226.828 136.077 1188.8 -202.391 2861.21 -2882.24)
(115.337 82.925 1932.05 -123.643 2714.84 -2510.8)
(-70.8786 28.9109 2034.36 -46.0257 1818.89 -1987.88)
(-215.51 -3.22082 1447.74 7.54066 803.025 -1540.62)
(-247.126 -5.81672 528.389 23.4517 234.692 -1322.97)
(-173.578 12.9393 -268.893 2.47917 321.217 -1333.23)
(-53.4622 33.3531 -660.899 -30.9011 910.738 -1497.07)
(47.3017 34.3235 -612.082 -40.5682 1629.07 -1732.32)
(78.2277 7.10742 -290.067 -8.61148 2051.07 -1959.63)
(16.3721 -36.4084 -6.95016 33.6908 1905.65 -2063.31)
(-105.098 -68.201 -115.089 29.0207 1299.88 -1973.52)
(-188.681 -65.676 -720.771 -23.4335 775.179 -1889.74)
(-144.146 -29.8443 -1472.39 -84.8346 897.74 -2061.31)
(18.453 15.6315 -1792.83 -115.783 1758.97 -2501.03)
(183.76 38.0979 -1379.6 -102.578 2845.78 -2950.46)
(235.504 11.0174 -499.386 -80.1231 3443.73 -3053.49)
(170.029 -76.4453 279.048 -91.5274 3180.44 -2722.66)
(88.9084 -200.098 658.668 -164.099 2189.18 -2140.15)
(81.62 -285.794 850.746 -300.487 934.313 -1600.92)
(174.629 -218.704 1266.7 -453.581 17.3126 -1549.75)
(778.092 46.4898 2085.59 -482.472 177.209 -3171.41)
(3366.94 165.042 2722.76 -60.6703 1579.22 -11467.3)
(2373.85 -342.516 -1130.64 267.951 7763.75 -8014.69)
(770.772 -469.414 946.604 -376.148 6266.84 -5497.06)
(225.326 -445.659 2376.24 -416.75 3598.7 -4468.65)
(-129.981 -345.899 2402.55 -349.438 990.325 -3580.27)
(-292.33 -173.258 1440.8 -338.012 -680.4 -3000.81)
(-220.02 21.0661 331.167 -384.89 -860.505 -2934.52)
(1.5811 156.429 -126.394 -441.408 209.487 -3233.46)
(201.739 190.268 322.212 -460.176 1638.59 -3473.12)
(247.815 138.87 1276.64 -408.902 2523.23 -3372.65)
(124.55 53.9147 2056.46 -291.09 2465.43 -2923.18)
(-78.1652 -13.2532 2156.9 -155.125 1680.06 -2281.06)
(-234.356 -35.5209 1531.3 -55.4736 747.829 -1732.21)
(-267.029 -15.3216 557.354 -25.2257 205.67 -1470.71)
(-185.608 25.6704 -282.929 -58.9417 265.129 -1502.17)
(-54.7965 59.28 -690.231 -117.746 804.929 -1723.83)
(53.3207 60.4857 -631.744 -154.096 1487.27 -2010.45)
(84.592 19.3784 -293.386 -142.063 1909.43 -2247.04)
(16.2714 -45.9763 -8.90316 -100.073 1793.64 -2318.81)
(-114.036 -89.3068 -137.057 -77.9466 1214.43 -2200.06)
(-201.874 -73.1198 -773.122 -107.273 681.444 -2119.54)
(-151.92 -6.54551 -1546.07 -182.459 751.305 -2346.25)
(23.0939 61.2174 -1861.21 -265.624 1537.93 -2879.59)
(197.003 76.8144 -1418.58 -308.255 2573.98 -3411.32)
(243.33 17.1772 -512.839 -300.196 3168.16 -3545.02)
(159.655 -104.956 250.264 -277.108 2928.73 -3193.06)
(61.8994 -246.822 559.148 -300.168 1937.77 -2590.22)
(58.2129 -333.709 653.521 -413.059 618.004 -2080.04)
(185.522 -258.955 1019.75 -583.006 -408.751 -2089.13)
(827.519 19.3351 1931.59 -670.968 -304.591 -3618.11)
(3429.26 123.869 2732.34 -355.112 1327.83 -11304.4)
(2472.62 -281.23 -1323.72 -371.588 7537.79 -7609.31)
(831.511 -490.645 736.373 -696.514 5702.28 -5670.08)
(247.082 -495.729 2220.88 -599.497 3100.9 -4805.97)
(-121.573 -400.919 2270.25 -478.386 613.994 -3889.62)
(-283.374 -205.239 1352.91 -443.812 -1002.61 -3277)
(-208.3 22.9698 303.538 -501.045 -1217.7 -3207.35)
(15.1243 180.305 -99.4529 -595.481 -228.512 -3519.59)
(214.86 213.449 386.901 -646.542 1146.86 -3771.44)
(256.708 144.837 1360.96 -595.309 2059.5 -3656.98)
(125.657 40.116 2142.41 -444.033 2113.33 -3157.33)
(-85.2971 -37.3678 2227.61 -258.109 1472.01 -2450.64)
(-246.099 -56.4592 1575.78 -118.605 649.806 -1849.81)
(-277.656 -23.9471 574.956 -75.1042 142.479 -1566.74)
(-190.819 31.1301 -281.707 -119.438 167.881 -1609.7)
(-54.29 74.6529 -690.134 -200.724 643.429 -1858.42)
(55.9413 77.7307 -624.651 -260.422 1274.93 -2162.39)
(84.4861 28.9573 -287.012 -264.498 1687.1 -2389.34)
(11.3906 -49.6546 -21.7358 -221.64 1601.47 -2436.45)
(-121.264 -101.024 -176.9 -178.537 1062.18 -2313.99)
(-206.865 -78.4994 -826.74 -191.124 531.056 -2256.42)
(-151.127 5.45678 -1590.95 -280.3 538.303 -2524.57)
(29.3249 87.6036 -1881.7 -408.496 1220.78 -3102.02)
(202.937 101.792 -1418.87 -498.184 2175.71 -3660.06)
(240.157 24.4098 -519.228 -501.771 2759.05 -3799.84)
(141.622 -120.694 197.181 -449.087 2562.95 -3444.79)
(32.9946 -280.367 420.442 -429.558 1599.73 -2860.04)
(35.544 -376.456 416.584 -520.953 228.339 -2409.31)
(194.01 -302.73 733.101 -703.765 -917.154 -2489.17)
(860.161 -16.6406 1723.81 -839.395 -902.497 -3927.53)
(3425.32 82.9442 2681.55 -609.739 886.913 -10959.1)
(2442.72 -223.296 -1437.49 -963.818 6903.69 -6828.96)
(852.416 -483.077 535.804 -958.396 4977.12 -5601.23)
(257.346 -519.884 2014.72 -735.616 2516.66 -4969.13)
(-109.082 -435.347 2079.42 -578.877 165.57 -4089.39)
(-262.927 -228.855 1234.31 -532.727 -1393.37 -3485.6)
(-186.59 18.2377 281.398 -598.909 -1649.92 -3417.95)
(31.1346 190.125 -46.522 -720.841 -758.224 -3718.39)
(222.695 227.186 472.582 -795.215 550.446 -3950.61)
(257.18 152.926 1443.46 -743.585 1493.57 -3809.33)
(120.88 38.5233 2202.79 -566.908 1677.2 -3275.03)
(-92.6211 -46.6105 2262.46 -342.947 1205.64 -2537.05)
(-252.999 -67.7502 1591.62 -172.908 513.636 -1915.83)
(-281.604 -31.5462 582.273 -118.858 47.992 -1626.65)
(-190.888 30.6233 -271.797 -171.299 33.9833 -1675.93)
(-52.1979 81.1129 -670.392 -270.323 433.892 -1932.2)
(56.3356 87.4805 -598.877 -348.135 1003.37 -2231.77)
(80.0257 36.3689 -272.961 -363.792 1398.75 -2437.98)
(3.37445 -48.55 -39.8545 -319.538 1344.41 -2465.87)
(-127.32 -105.305 -226.262 -261.769 853.79 -2353.81)
(-206.464 -82.4224 -879.793 -263.709 329.963 -2329.08)
(-144.691 8.0987 -1616.93 -365.265 265.273 -2629.25)
(36.6992 98.2034 -1871.28 -528.335 820.766 -3221.13)
(204.167 115.357 -1393.01 -653.542 1672.17 -3772.13)
(229.553 32.3038 -518.397 -665.018 2240.55 -3901.91)
(117.77 -125.936 130.389 -588.566 2103.6 -3552.07)
(1.54649 -302.46 254.307 -535.246 1189.61 -3006.56)
(11.868 -413.785 145.929 -608.923 -223.015 -2634.16)
(199 -348.066 407.341 -801.216 -1494.97 -2793.9)
(877.849 -58.4606 1462.25 -971.633 -1596.68 -4151.72)
(3371.16 42.4849 2575.72 -800.961 293.718 -10514.8)
(2337.41 -169.118 -1496.28 -1458.37 5916.1 -5912.69)
(844.689 -452.001 343.316 -1147.3 4136.78 -5392.46)
(258.7 -524.253 1773.37 -818.599 1879.95 -5013.74)
(-93.9296 -453.994 1849.2 -642.154 -332.691 -4212.26)
(-234.906 -245.63 1094.27 -593.565 -1837.77 -3646.77)
(-158.361 8.85302 259.996 -666.683 -2141.45 -3587.96)
(48.878 189.131 20.1294 -806.001 -1357.16 -3864.95)
(227.255 233.05 570.121 -895.277 -122.172 -4059.59)
(252.182 161.686 1524.69 -843.718 854.348 -3882.45)
(112.097 45.4481 2247.07 -651 1180.48 -3320.88)
(-100.283 -44.8743 2273.73 -402.359 896.136 -2570.1)
(-256.785 -71.5993 1587.14 -212.315 347.847 -1947.3)
(-280.968 -38.0937 580.471 -151.226 -71.5874 -1662.22)
(-187.231 25.6784 -258.211 -209.208 -128.864 -1715.69)
(-48.7748 80.6535 -638.771 -320.489 187.454 -1968.19)
(55.4534 91.3634 -560.862 -410.598 687.593 -2250.56)
(72.9278 42.0897 -252.812 -433.574 1062.52 -2430.21)
(-6.45578 -43.8674 -58.9589 -387.987 1040.79 -2442.62)
(-132.613 -104.017 -278.762 -321.266 603.63 -2347.7)
(-202.876 -85.1654 -930.852 -317.339 88.9268 -2359.28)
(-134.948 3.84934 -1631.56 -428.189 -55.5562 -2685.37)
(44.7923 96.9626 -1843.01 -614.898 357.066 -3275.75)
(202.69 120.115 -1350.86 -763.563 1090.38 -3802.28)
(214.38 40.3725 -510.614 -779.248 1642.47 -3912.07)
(89.7476 -123.252 57.9597 -685.116 1577.07 -3569.38)
(-32.7002 -315.096 70.552 -607.067 728.054 -3072.37)
(-14.0578 -445.491 -152.362 -667.214 -718.633 -2788.41)
(199.572 -392.845 44.3807 -865.629 -2124.01 -3035)
(881.664 -102.927 1147.81 -1056.92 -2361.55 -4326.5)
(3277.4 2.49994 2418.86 -913.126 -403.187 -10026.4)
(2201.36 -118.38 -1523.14 -1819.57 4655 -5053.15)
(818.221 -402.686 153.633 -1257.93 3227.94 -5115.97)
(253.69 -514.066 1507.11 -848.427 1223.13 -4974.37)
(-76.9487 -460.9 1594.16 -664.077 -856.429 -4276.95)
(-202.302 -256.801 940.523 -618.501 -2315.86 -3771.18)
(-126.424 -3.31121 236.364 -695.75 -2671.05 -3728.94)
(67.5603 180.27 91.2612 -843.405 -1998.36 -3979.83)
(229.876 232.274 671.863 -940.688 -839.289 -4128.62)
(243.903 169.337 1603.72 -890.867 173.097 -3910.01)
(100.84 56.9006 2281.05 -692.142 648.787 -3324.12)
(-108.204 -36.2959 2269.83 -432.517 561.012 -2569.69)
(-258.602 -70.3779 1568.47 -233.153 163.409 -1955.67)
(-277.282 -43.6186 570.732 -168.731 -207.763 -1681.13)
(-180.972 17.8852 -244.391 -229.698 -310.828 -1738.46)
(-44.2854 75.3364 -601.007 -347.609 -82.6678 -1981.44)
(53.9858 90.9456 -515.496 -444.396 344.465 -2239.98)
(64.5014 46.447 -227.854 -471.215 697.727 -2390.73)
(-17.062 -36.7795 -75.9789 -424.887 709.813 -2390.17)
(-137.365 -98.719 -329.673 -353.906 327.882 -2314.43)
(-197.681 -86.6107 -978.527 -347.237 -178.196 -2361.72)
(-123.66 -4.54918 -1639.84 -463.087 -408.146 -2709.61)
(53.159 87.8871 -1806.08 -662.078 -147.606 -3291.41)
(199.843 118.577 -1299.84 -822.739 460.146 -3786.52)
(196.765 48.0022 -496.648 -839.684 996.928 -3870.72)
(59.0205 -115.252 -14.4967 -734.079 1012.26 -3533.49)
(-69.5673 -320.212 -122.844 -639.872 238.863 -3086.75)
(-42.937 -471.174 -471.941 -690.069 -1237.62 -2894.97)
(194.929 -434.673 -352.465 -890.486 -2782.52 -3232.56)
(871.713 -146.675 781.935 -1088.21 -3167.57 -4471.72)
(3148.26 -37.2461 2212.85 -938.195 -1148.54 -9518.19)
(2068.45 -70.1704 -1536.95 -2025.68 3217.51 -4390.09)
(780.947 -339.951 -38.9134 -1290.87 2295.56 -4817.25)
(244.529 -493.236 1222.95 -828.611 575.134 -4867.73)
(-58.6052 -458.98 1325.42 -643.602 -1380.85 -4289.06)
(-167.338 -263.149 779.567 -602.625 -2804.22 -3859.01)
(-93.0238 -16.5405 209.063 -680.35 -3213.42 -3841.29)
(86.2977 166.026 160.151 -828.538 -2651.85 -4069.02)
(231.242 225.63 771.154 -928.723 -1567.6 -4170.51)
(233.809 173.811 1677.95 -883.55 -518.182 -3908.44)
(88.3206 68.7831 2306.84 -689.236 108.34 -3300.05)
(-116.062 -25.0051 2255.38 -432.164 218.691 -2546.51)
(-259.003 -66.4239 1539.56 -233.765 -27.4115 -1946.83)
(-271.509 -48.1328 554.237 -169.47 -350.616 -1686.74)
(-172.946 8.82527 -232.268 -230.781 -500.72 -1748.3)
(-39.0256 67.137 -560.922 -349.836 -362.094 -1979.36)
(52.3473 87.5869 -466.332 -448.295 -8.47497 -2211.42)
(55.6759 49.572 -199.255 -476.483 323.707 -2333.23)
(-27.6206 -28.3795 -88.9644 -430.484 370.382 -2321.55)
(-141.576 -90.5941 -375.521 -358.902 43.2707 -2264.28)
(-191.853 -86.2546 -1021.1 -351.038 -455.803 -2343.88)
(-112.081 -14.2155 -1644.13 -466.615 -774.105 -2709.99)
(61.2785 74.8261 -1766.13 -666.761 -668.58 -3280.77)
(196.296 112.967 -1245.19 -829.002 -187.645 -3743.78)
(178.128 54.3903 -477.919 -845.312 336.343 -3800.11)
(26.915 -104.523 -83.7084 -734.716 438.427 -3465.49)
(-108.395 -319.516 -319.475 -632.249 -253.09 -3066.78)
(-74.8972 -490.035 -805.849 -674.761 -1757.17 -2966.42)
(184.362 -470.688 -778.111 -871.488 -3446.1 -3395.41)
(846.938 -186.157 366.631 -1061.15 -3982.36 -4591.2)
(2981.02 -77.2212 1957.09 -875.446 -1884.9 -8981.86)
(1960.53 -23.191 -1550.38 -2068.29 1709.7 -4006.66)
(738.457 -267.982 -237.638 -1250.63 1381.31 -4517.45)
(232.87 -464.299 926.636 -764.421 -38.9969 -4694.98)
(-39.2087 -449.974 1051.78 -581.941 -1881.66 -4241.49)
(-131.646 -264.952 617.078 -543.834 -3277.28 -3898.94)
(-59.9605 -29.2703 177.972 -617.62 -3740.55 -3913.03)
(104.078 148.399 222.072 -759.676 -3285.84 -4123.53)
(231.409 213.419 861.848 -859.312 -2273.19 -4181.08)
(222.696 172.794 1742.8 -822.766 -1187.74 -3877.96)
(75.4797 76.9825 2322.88 -643.497 -415.062 -3251.05)
(-123.268 -15.0051 2231.34 -402.146 -112.529 -2502.54)
(-257.947 -61.9242 1502.34 -214.31 -212.013 -1921.16)
(-264.064 -51.5614 532.215 -153.018 -489.576 -1677.89)
(-163.721 0.0604733 -222.313 -211.795 -686.62 -1743.77)
(-33.3531 57.875 -520.582 -326.762 -635.925 -1961.83)
(50.6674 82.3806 -415.843 -422.675 -353.712 -2167.01)
(47.0463 51.3828 -168.252 -450.781 -40.9563 -2261.53)
(-37.4478 -19.6874 -96.9841 -406.624 40.4033 -2240.59)
(-144.981 -80.485 -413.734 -337.294 -233.824 -2199.75)
(-185.794 -83.2615 -1056.18 -328.511 -727.664 -2306.04)
(-101.03 -22.1915 -1644.17 -437.79 -1133.88 -2685.61)
(68.4962 61.4084 -1725.42 -628.263 -1180.32 -3243.92)
(192.048 105.162 -1190.38 -782.762 -822.076 -3676.86)
(159.231 58.4869 -456.695 -797.714 -307.616 -3705.9)
(-5.31779 -93.6535 -148.683 -689.134 -116.177 -3372.29)
(-147.973 -314.454 -514.237 -585.779 -723.406 -3018.38)
(-109.425 -500.739 -1146.04 -621.158 -2253.82 -3005.43)
(167.267 -497.378 -1225.02 -806.273 -4088.2 -3520.98)
(805.016 -217.598 -94.8882 -973.871 -4771.36 -4672.08)
(2765.92 -118.006 1648.57 -731.188 -2556.94 -8376.91)
(1886.93 24.0243 -1568.68 -1951.86 238.632 -3928.52)
(693.858 -190.289 -441.565 -1144.73 522.793 -4215.32)
(219.69 -428.603 624.361 -662.244 -597.814 -4442.94)
(-19.0874 -434.608 780.822 -482.479 -2335.67 -4114.3)
(-96.4474 -262.042 458.298 -443.196 -3708.61 -3866.91)
(-28.7092 -40.0602 144.125 -508.114 -4223.08 -3918.33)
(119.723 128.963 273.832 -638.288 -3867.81 -4118.38)
(229.845 195.553 937.874 -735.215 -2922.47 -4139.02)
(210.755 163.8 1791.54 -711.969 -1804.82 -3802.9)
(63.039 77.4375 2323.91 -558.327 -896.812 -3167.01)
(-128.944 -10.1033 2195.16 -345.286 -415.373 -2431.41)
(-254.814 -58.8396 1456.88 -176.71 -378.357 -1873.56)
(-254.839 -53.6842 506.052 -120.467 -614.162 -1648.72)
(-153.647 -6.85599 -213.556 -173.468 -856.466 -1717.63)
(-27.7213 49.1915 -480.48 -279.416 -889.285 -1921.05)
(48.787 76.1418 -365.683 -369.4 -674.296 -2099.79)
(38.9179 51.5909 -136.344 -396.92 -378.885 -2170.17)
(-45.9315 -11.6836 -100.068 -356.515 -263.707 -2142.78)
(-147.024 -68.9777 -442.361 -291.777 -488.106 -2115.98)
(-179.373 -76.5512 -1080.49 -281.518 -977.942 -2241.23)
(-90.9594 -25.485 -1636.97 -378.03 -1467.86 -2626.26)
(73.9686 51.0461 -1683.08 -548.32 -1657.34 -3168.07)
(186.421 96.6922 -1137.37 -686.761 -1412.93 -3572.77)
(140.217 58.961 -436.353 -700.751 -904.777 -3577.94)
(-36.4353 -85.3012 -210.754 -601.913 -625.29 -3247.61)
(-186.462 -306.233 -703.112 -504.758 -1149.46 -2937.05)
(-145.268 -501.36 -1482.81 -531.759 -2704.55 -3004.89)
(143.198 -510.47 -1682.24 -694.82 -4680.82 -3594.53)
(742.38 -236.957 -597.091 -827.42 -5498.63 -4683.81)
(2486.48 -160.127 1282.52 -518.585 -3115.47 -7632.09)
(1844.94 72.9028 -1589.46 -1693.12 -1095.39 -4125.84)
(647.86 -109.773 -644.439 -983.729 -247.174 -3888.5)
(205.264 -386.632 323.85 -530.047 -1083.21 -4084.34)
(1.29556 -412.867 519.736 -351.518 -2721.55 -3873.8)
(-62.6902 -253.928 308.397 -305.929 -4072.55 -3724.56)
(-0.52498 -47.5774 109.605 -356.931 -4632.08 -3815.79)
(131.862 108.966 313.423 -470.17 -4366.07 -4011.2)
(225.463 171.685 992.896 -563.024 -3483.38 -4004.93)
(197.632 144.305 1815.1 -557.837 -2340.64 -3651.28)
(51.5502 66.2518 2301.01 -439.783 -1314.41 -3025.3)
(-131.9 -13.8262 2140.96 -266.612 -674.527 -2318.55)
(-248.407 -58.84 1401.63 -124.784 -515.891 -1793.59)
(-243.238 -54.0998 477.453 -74.6242 -714.781 -1588.53)
(-142.892 -10.3792 -203.578 -118.232 -998.725 -1656.43)