/*--------------------------------*- C++ -*----------------------------------*\
| =========                 |                                                 |
| \\      /  F ield         | OpenFOAM: The Open Source CFD Toolbox           |
|  \\    /   O peration     | Version:  2106                                  |
|   \\  /    A nd           | Website:  www.openfoam.com                      |
|    \\/     M anipulation  |                                                 |
\*---------------------------------------------------------------------------*/
FoamFile
{
    version     2.0;
    format      ascii;
    arch        "LSB;label=32;scalar=64";
    class       volSymmTensorField;
    location    "1148";
    object      sigma;
}
// * * * * * * * * * * * * * * * * * * * * * * * * * * * * * * * * * * * * * //

dimensions      [1 -1 -2 0 0 0 0];

internalField   nonuniform List<symmTensor> 
9000
(
(1.14785e+13 -2.34819e+11 3.69592e+12 6.0653e+12 3.36943e+12 6.79769e+13)
(1.78904e+13 3.09237e+10 -5.32419e+11 6.03266e+12 3.92491e+12 5.84069e+13)
(1.46592e+13 3.06749e+10 -3.47286e+12 4.50445e+12 3.04055e+12 4.32555e+13)
(9.34097e+12 2.4963e+10 -3.44868e+12 2.59231e+12 1.74279e+12 2.51046e+13)
(5.70606e+12 1.05215e+10 -1.06296e+12 1.3443e+12 8.88778e+11 1.3248e+13)
(5.59425e+12 -7.88417e+09 1.83095e+12 1.36609e+12 8.46087e+11 1.34908e+13)
(8.31047e+12 -1.40446e+10 3.20159e+12 2.38924e+12 1.43925e+12 2.32747e+13)
(1.12654e+13 -3.91905e+09 2.29864e+12 3.47873e+12 2.144e+12 3.36586e+13)
(1.21303e+13 1.2027e+10 3.23705e+10 3.80906e+12 2.42978e+12 3.67374e+13)
(1.03389e+13 2.34408e+10 -1.99628e+12 3.19509e+12 2.10717e+12 3.07554e+13)
(7.02305e+12 2.43972e+10 -2.62637e+12 2.05346e+12 1.41136e+12 1.975e+13)
(4.09257e+12 1.5097e+10 -1.74649e+12 1.06074e+12 7.49158e+11 1.02218e+13)
(2.89461e+12 3.02162e+09 -1.67618e+11 6.78522e+11 4.35362e+11 6.58073e+12)
(3.52009e+12 -5.24436e+09 1.14603e+12 9.19577e+11 5.53848e+11 8.93028e+12)
(5.22496e+12 -9.52065e+09 1.68539e+12 1.51572e+12 9.58049e+11 1.4687e+13)
(7.05122e+12 -1.14455e+10 1.353e+12 2.14706e+12 1.38626e+12 2.07697e+13)
(8.12082e+12 -8.56819e+09 2.72739e+11 2.51832e+12 1.58063e+12 2.43347e+13)
(7.79351e+12 1.38729e+09 -1.04562e+12 2.38724e+12 1.43368e+12 2.30631e+13)
(6.23096e+12 8.61012e+09 -1.54275e+12 1.79304e+12 1.10707e+12 1.73319e+13)
(5.05115e+12 1.67245e+09 -5.08826e+11 1.30915e+12 9.0442e+11 1.26813e+13)
(5.92344e+12 -1.44492e+10 1.38507e+12 1.55977e+12 1.11127e+12 1.50983e+13)
(8.94083e+12 -2.42877e+10 2.53177e+12 2.5966e+12 1.71996e+12 2.50627e+13)
(1.22988e+13 -1.65322e+10 1.84719e+12 3.76412e+12 2.38063e+12 3.62625e+13)
(1.37552e+13 3.26869e+09 -9.06956e+10 4.24056e+12 2.70189e+12 4.0799e+13)
(1.27491e+13 1.77078e+10 -1.53216e+12 3.82467e+12 2.56193e+12 3.67601e+13)
(1.07486e+13 1.64512e+10 -1.30295e+12 3.06997e+12 2.18491e+12 2.9527e+13)
(9.49267e+12 2.49174e+09 1.34168e+11 2.63641e+12 1.88013e+12 2.55399e+13)
(9.09871e+12 -2.35163e+10 1.25091e+12 2.61182e+12 1.73471e+12 2.55681e+13)
(7.96471e+12 -8.31254e+10 8.0996e+11 2.48179e+12 1.43779e+12 2.39543e+13)
(2.14758e+12 1.48856e+10 -3.31813e+11 1.08863e+12 2.73479e+11 1.26528e+13)
(8.87977e+12 -3.82696e+11 3.29955e+12 7.61051e+12 3.71999e+12 5.07981e+13)
(1.32284e+13 2.21364e+11 -4.69698e+10 6.92335e+12 5.358e+12 4.16465e+13)
(1.09403e+13 3.3602e+11 -2.25814e+12 5.09189e+12 4.15969e+12 3.0686e+13)
(7.01205e+12 3.06222e+11 -2.28545e+12 2.89153e+12 2.24892e+12 1.78878e+13)
(4.30927e+12 1.23286e+11 -5.88163e+11 1.45507e+12 1.00783e+12 9.50859e+12)
(4.25874e+12 -9.95344e+10 1.49969e+12 1.52102e+12 9.06321e+11 9.75698e+12)
(6.35017e+12 -1.97533e+11 2.477e+12 2.78446e+12 1.68643e+12 1.68467e+13)
(8.59234e+12 -1.15453e+11 1.78847e+12 4.09382e+12 2.69116e+12 2.42961e+13)
(9.21038e+12 6.02837e+10 1.12033e+11 4.45615e+12 3.18253e+12 2.64088e+13)
(7.80449e+12 2.05017e+11 -1.38239e+12 3.68605e+12 2.82616e+12 2.19967e+13)
(5.26061e+12 2.35741e+11 -1.85135e+12 2.30663e+12 1.91499e+12 1.40267e+13)
(3.04795e+12 1.49712e+11 -1.21572e+12 1.14419e+12 9.8397e+11 7.21313e+12)
(2.18174e+12 1.94785e+10 -7.79081e+10 7.39809e+11 4.8611e+11 4.70246e+12)
(2.69037e+12 -7.99902e+10 8.57226e+11 1.06125e+12 6.13838e+11 6.4691e+12)
(3.98986e+12 -1.22328e+11 1.23516e+12 1.76897e+12 1.19072e+12 1.06105e+13)
(5.37033e+12 -1.10118e+11 9.93776e+11 2.50964e+12 1.80213e+12 1.49638e+13)
(6.19376e+12 -4.34155e+10 2.0311e+11 2.96991e+12 2.02383e+12 1.75607e+13)
(5.96146e+12 5.87206e+10 -7.97282e+11 2.83825e+12 1.75022e+12 1.6694e+13)
(4.73451e+12 1.05343e+11 -1.21164e+12 2.08052e+12 1.34584e+12 1.24792e+13)
(3.78898e+12 1.95412e+10 -4.76035e+11 1.43174e+12 1.15731e+12 9.0063e+12)
(4.43942e+12 -1.42826e+11 9.20488e+11 1.70092e+12 1.47192e+12 1.07031e+13)
(6.77006e+12 -2.40424e+11 1.77845e+12 2.97246e+12 2.24421e+12 1.79529e+13)
(9.37603e+12 -1.74932e+11 1.27831e+12 4.42299e+12 3.05956e+12 2.61294e+13)
(1.04927e+13 2.7135e+09 -1.47717e+11 4.99259e+12 3.51069e+12 2.9394e+13)
(9.69526e+12 1.36919e+11 -1.16872e+12 4.43609e+12 3.43405e+12 2.63685e+13)
(8.17892e+12 1.31956e+11 -8.86874e+11 3.50419e+12 3.00447e+12 2.11289e+13)
(7.32199e+12 3.67049e+10 3.45171e+11 3.05884e+12 2.53224e+12 1.84738e+13)
(7.11977e+12 -4.12361e+10 1.35735e+12 3.13537e+12 2.19771e+12 1.87565e+13)
(6.16621e+12 -7.89492e+10 1.16905e+12 2.95559e+12 1.68871e+12 1.73368e+13)
(1.13066e+12 1.36665e+11 1.08743e+11 5.41445e+11 -1.35057e+11 7.0498e+12)
(6.88929e+12 -4.49456e+11 2.79134e+12 8.41004e+12 2.83525e+12 3.71589e+13)
(1.0217e+13 2.86811e+11 3.88912e+11 7.67165e+12 4.96397e+12 2.99857e+13)
(8.46692e+12 4.32434e+11 -1.2376e+12 5.63204e+12 3.80502e+12 2.20756e+13)
(5.37308e+12 3.97787e+11 -1.30945e+12 3.15124e+12 1.9123e+12 1.28565e+13)
(3.241e+12 1.60397e+11 -1.89398e+11 1.53002e+12 7.00434e+11 6.80741e+12)
(3.21993e+12 -1.32705e+11 1.21414e+12 1.60167e+12 5.89197e+11 7.00344e+12)
(4.90924e+12 -2.60231e+11 1.86507e+12 3.02818e+12 1.32022e+12 1.21794e+13)
(6.72412e+12 -1.47382e+11 1.37448e+12 4.52056e+12 2.29649e+12 1.76365e+13)
(7.23294e+12 8.89994e+10 2.07743e+11 4.95123e+12 2.82004e+12 1.91893e+13)
(6.10815e+12 2.81521e+11 -8.33919e+11 4.09816e+12 2.54259e+12 1.59495e+13)
(4.07295e+12 3.19801e+11 -1.17384e+12 2.55118e+12 1.71913e+12 1.01164e+13)
(2.309e+12 2.01434e+11 -7.57878e+11 1.24181e+12 8.40312e+11 5.14516e+12)
(1.62849e+12 2.53627e+10 -1.68801e+09 7.83741e+11 3.42824e+11 3.33248e+12)
(2.05344e+12 -1.07607e+11 6.13367e+11 1.14825e+12 4.43058e+11 4.65825e+12)
(3.10897e+12 -1.63813e+11 8.53943e+11 1.95277e+12 9.89236e+11 7.71515e+12)
(4.21733e+12 -1.48244e+11 6.80022e+11 2.79136e+12 1.57005e+12 1.09032e+13)
(4.86063e+12 -6.03874e+10 1.25184e+11 3.30259e+12 1.75763e+12 1.27707e+13)
(4.64704e+12 7.70432e+10 -5.95325e+11 3.13988e+12 1.46983e+12 1.20863e+13)
(3.64754e+12 1.40672e+11 -9.22931e+11 2.28179e+12 1.10651e+12 8.98321e+12)
(2.88483e+12 2.47401e+10 -4.4311e+11 1.55338e+12 9.6103e+11 6.44774e+12)
(3.40594e+12 -1.94489e+11 5.15394e+11 1.85757e+12 1.25875e+12 7.70079e+12)
(5.27469e+12 -3.25923e+11 1.11711e+12 3.28683e+12 1.94495e+12 1.30136e+13)
(7.36441e+12 -2.36462e+11 7.83151e+11 4.91896e+12 2.66267e+12 1.90005e+13)
(8.27011e+12 4.17533e+09 -1.84617e+11 5.57148e+12 3.087e+12 2.14082e+13)
(7.65761e+12 1.82982e+11 -8.36519e+11 4.96656e+12 3.06308e+12 1.92395e+13)
(6.4968e+12 1.69812e+11 -5.23081e+11 3.94173e+12 2.68556e+12 1.55183e+13)
(5.88341e+12 3.6561e+10 5.06154e+11 3.45616e+12 2.18999e+12 1.3757e+13)
(5.74847e+12 -5.92565e+10 1.38733e+12 3.52843e+12 1.79834e+12 1.40549e+13)
(4.87417e+12 -7.14375e+10 1.32904e+12 3.20978e+12 1.34554e+12 1.24973e+13)
(2.62871e+11 1.94053e+11 4.70848e+11 -4.21351e+09 -2.85417e+11 2.07802e+12)
(4.91426e+12 -4.69797e+11 2.21548e+12 7.4418e+12 2.1371e+12 2.5246e+13)
(7.30014e+12 2.65864e+11 7.36762e+11 6.63563e+12 4.35138e+12 2.03562e+13)
(6.05388e+12 4.15631e+11 -3.58126e+11 4.82994e+12 3.24409e+12 1.50055e+13)
(3.75183e+12 3.89522e+11 -4.60812e+11 2.62376e+12 1.47408e+12 8.6395e+12)
(2.16378e+12 1.57542e+11 1.58674e+11 1.17991e+12 3.57029e+11 4.45199e+12)
(2.16619e+12 -1.33894e+11 9.6247e+11 1.24872e+12 2.54766e+11 4.59488e+12)
(3.46223e+12 -2.58583e+11 1.33101e+12 2.53702e+12 9.22985e+11 8.21404e+12)
(4.86523e+12 -1.39457e+11 1.0231e+12 3.89545e+12 1.82502e+12 1.20744e+13)
(5.27802e+12 1.03494e+11 3.10816e+11 4.30435e+12 2.33587e+12 1.32134e+13)
(4.43785e+12 2.98823e+11 -3.31056e+11 3.55599e+12 2.13252e+12 1.09616e+13)
(2.90431e+12 3.34475e+11 -5.60495e+11 2.18196e+12 1.42604e+12 6.88315e+12)
(1.57648e+12 2.09512e+11 -3.44882e+11 1.01842e+12 6.4809e+11 3.40419e+12)
(1.07073e+12 2.67627e+10 6.91598e+10 6.16384e+11 1.95049e+11 2.13801e+12)
(1.40944e+12 -1.10112e+11 3.9971e+11 9.50738e+11 2.7213e+11 3.09449e+12)
(2.22653e+12 -1.67726e+11 5.17135e+11 1.67665e+12 7.52987e+11 5.27604e+12)
(3.06977e+12 -1.52523e+11 3.9787e+11 2.42818e+12 1.26871e+12 7.52158e+12)
(3.53398e+12 -6.40662e+10 4.64142e+10 2.87956e+12 1.43206e+12 8.77573e+12)
(3.33401e+12 7.57431e+10 -4.23755e+11 2.72133e+12 1.17154e+12 8.20955e+12)
(2.56175e+12 1.40294e+11 -6.69027e+11 1.93988e+12 8.46508e+11 6.02461e+12)
(1.98451e+12 2.05715e+10 -4.16552e+11 1.27672e+12 7.13004e+11 4.27994e+12)
(2.38111e+12 -2.04309e+11 1.49636e+11 1.54152e+12 9.62616e+11 5.18052e+12)
(3.79315e+12 -3.379e+11 5.22037e+11 2.8192e+12 1.54833e+12 8.89568e+12)
(5.371e+12 -2.43951e+11 3.39583e+11 4.28487e+12 2.16631e+12 1.30705e+13)
(6.07105e+12 4.13984e+09 -2.13985e+11 4.8808e+12 2.54197e+12 1.47852e+13)
(5.64832e+12 1.84364e+11 -5.36289e+11 4.35554e+12 2.53014e+12 1.33579e+13)
(4.83924e+12 1.62609e+11 -2.03047e+11 3.46267e+12 2.17899e+12 1.09116e+13)
(4.44997e+12 1.94087e+10 6.31494e+11 3.05719e+12 1.67845e+12 9.86614e+12)
(4.35924e+12 -7.0002e+10 1.37688e+12 3.1187e+12 1.27693e+12 1.01272e+13)
(3.56813e+12 -4.45856e+10 1.41601e+12 2.6944e+12 9.6883e+11 8.38895e+12)
(-5.34475e+11 2.18911e+11 7.99177e+11 -8.3635e+11 -1.94345e+11 -2.25779e+12)
(3.10745e+12 -4.61636e+11 1.62097e+12 5.69214e+12 2.10327e+12 1.51073e+13)
(4.68132e+12 1.88706e+11 9.71336e+11 4.89311e+12 4.11769e+12 1.24341e+13)
(3.8625e+12 3.27327e+11 3.66756e+11 3.48568e+12 2.95396e+12 9.18187e+12)
(2.25348e+12 3.18309e+11 2.51369e+11 1.76865e+12 1.21711e+12 5.08835e+12)
(1.14495e+12 1.28947e+11 4.51937e+11 6.43169e+11 1.31279e+11 2.38534e+12)
(1.1696e+12 -1.15078e+11 7.4908e+11 7.05436e+11 4.10026e+10 2.49046e+12)
(2.11997e+12 -2.16262e+11 8.81099e+11 1.73678e+12 7.06759e+11 4.87103e+12)
(3.16002e+12 -1.06886e+11 7.33808e+11 2.83753e+12 1.59163e+12 7.46071e+12)
(3.49123e+12 1.07654e+11 4.13184e+11 3.19194e+12 2.0977e+12 8.2819e+12)
(2.90998e+12 2.7696e+11 1.14429e+11 2.62565e+12 1.92568e+12 6.84195e+12)
(1.82792e+12 3.03774e+11 -2.15961e+10 1.56163e+12 1.26823e+12 4.18833e+12)
(8.92069e+11 1.89212e+11 1.89362e+10 6.60489e+11 5.38196e+11 1.91851e+12)
(5.44301e+11 2.52548e+10 1.3546e+11 3.56923e+11 1.15846e+11 1.09656e+12)
(8.0596e+11 -9.64449e+10 2.18501e+11 6.31113e+11 1.86155e+11 1.75487e+12)
(1.4083e+12 -1.47276e+11 2.27755e+11 1.20896e+12 6.31376e+11 3.22718e+12)
(2.01307e+12 -1.34312e+11 1.53287e+11 1.80061e+12 1.11579e+12 4.70857e+12)
(2.31792e+12 -5.80629e+10 -2.57302e+10 2.14765e+12 1.28618e+12 5.46597e+12)
(2.13154e+12 6.22928e+10 -2.8233e+11 2.00643e+12 1.06015e+12 4.99436e+12)
(1.55975e+12 1.16537e+11 -4.57749e+11 1.37252e+12 7.32961e+11 3.54321e+12)
(1.1432e+12 1.01163e+10 -4.01009e+11 8.32564e+11 5.69579e+11 2.4262e+12)
(1.42419e+12 -1.86728e+11 -1.70845e+11 1.02757e+12 7.79115e+11 3.03221e+12)
(2.42597e+12 -3.01451e+11 6.67341e+09 2.0288e+12 1.33137e+12 5.45116e+12)
(3.54581e+12 -2.15749e+11 -4.34925e+10 3.18759e+12 1.93054e+12 8.16077e+12)
(4.06044e+12 3.01851e+09 -2.40358e+11 3.67105e+12 2.28625e+12 9.31517e+12)
(3.80437e+12 1.56046e+11 -2.81794e+11 3.27762e+12 2.24695e+12 8.48786e+12)
(3.30478e+12 1.25778e+11 6.22419e+10 2.60557e+12 1.86041e+12 7.06987e+12)
(3.10971e+12 -8.50293e+09 7.20741e+11 2.32288e+12 1.32582e+12 6.59485e+12)
(3.05709e+12 -7.63322e+10 1.34142e+12 2.36515e+12 9.18764e+11 6.81548e+12)
(2.35988e+12 -1.22515e+10 1.47353e+12 1.85944e+12 7.57038e+11 4.93917e+12)
(-1.21302e+12 2.22263e+11 1.09384e+12 -1.75441e+12 7.44145e+10 -5.81491e+12)
(1.57597e+12 -4.36592e+11 1.04823e+12 3.71948e+12 2.58769e+12 6.89765e+12)
(2.4829e+12 8.22842e+10 1.08873e+12 2.98817e+12 4.19495e+12 6.14075e+12)
(1.99331e+12 2.01359e+11 9.2162e+11 2.00577e+12 2.89352e+12 4.52106e+12)
(9.48364e+11 2.1304e+11 8.11673e+11 8.21054e+11 1.11804e+12 2.17614e+12)
(2.34017e+11 8.56576e+10 6.82994e+11 4.31947e+10 1.17511e+10 6.16602e+11)
(2.79841e+11 -8.62366e+10 5.78219e+11 9.81455e+10 -6.9793e+10 7.01327e+11)
(9.49527e+11 -1.52333e+11 5.24437e+11 8.47083e+11 6.33234e+11 2.13983e+12)
(1.69262e+12 -6.12224e+10 5.10538e+11 1.66355e+12 1.54571e+12 3.75624e+12)
(1.95891e+12 1.05586e+11 5.09303e+11 1.95794e+12 2.05997e+12 4.33804e+12)
(1.59665e+12 2.32753e+11 4.89788e+11 1.59391e+12 1.89139e+12 3.53819e+12)
(8.93501e+11 2.47148e+11 4.29111e+11 8.73405e+11 1.23268e+12 2.0004e+12)
(2.87441e+11 1.52339e+11 3.25163e+11 2.62669e+11 5.0661e+11 6.80137e+11)
(7.52175e+10 2.15239e+10 1.95989e+11 6.75225e+10 9.71745e+10 2.14692e+11)
(2.74063e+11 -7.39013e+10 7.34806e+10 2.74064e+11 1.70377e+11 6.44031e+11)
(6.96001e+11 -1.12932e+11 -7.96238e+09 6.87278e+11 6.06213e+11 1.55885e+12)
(1.10073e+12 -1.031e+11 -4.66396e+10 1.10233e+12 1.08913e+12 2.44056e+12)
(1.27497e+12 -4.62834e+10 -8.62059e+10 1.33538e+12 1.28681e+12 2.81767e+12)
(1.10302e+12 4.25416e+10 -1.72759e+11 1.2145e+12 1.09293e+12 2.42968e+12)
(6.93005e+11 8.04277e+10 -2.95602e+11 7.43942e+11 7.38329e+11 1.53481e+12)
(4.01763e+11 -3.21263e+09 -3.98496e+11 3.38682e+11 5.23363e+11 8.82094e+11)
(5.80312e+11 -1.5347e+11 -4.38082e+11 4.54704e+11 7.04304e+11 1.24207e+12)
(1.23914e+12 -2.3774e+11 -4.14577e+11 1.14912e+12 1.27127e+12 2.65058e+12)
(1.97898e+12 -1.67234e+11 -3.55672e+11 1.96787e+12 1.90741e+12 4.22703e+12)
(2.33737e+12 1.85921e+09 -2.65025e+11 2.32529e+12 2.26799e+12 4.9444e+12)
(2.21405e+12 1.11543e+11 -8.33589e+10 2.0747e+12 2.1829e+12 4.5719e+12)
(1.96438e+12 7.23018e+10 2.6285e+11 1.64091e+12 1.72371e+12 3.93776e+12)
(1.92646e+12 -4.31951e+10 7.70905e+11 1.48512e+12 1.12976e+12 3.89719e+12)
(1.90881e+12 -8.25387e+10 1.28659e+12 1.50197e+12 7.0649e+11 4.08418e+12)
(1.31234e+12 1.57449e+10 1.51189e+12 9.35291e+11 6.65384e+11 2.13539e+12)
(-1.75167e+12 2.1131e+11 1.34589e+12 -2.63967e+12 4.18427e+11 -8.5522e+12)
(3.64685e+11 -4.02034e+11 5.27192e+11 1.82084e+12 3.32362e+12 6.35553e+11)
(7.38675e+11 -3.11133e+10 1.10346e+12 1.19198e+12 4.38987e+12 1.35833e+12)
(4.77305e+11 6.54343e+10 1.30843e+12 5.95471e+11 2.92212e+12 9.24581e+11)
(-1.35984e+11 9.72718e+10 1.21822e+12 -9.82906e+10 1.09046e+12 -1.34728e+11)
(-5.44359e+11 3.68078e+10 8.49608e+11 -5.54759e+11 -5.18046e+10 -8.51395e+11)
(-4.79455e+11 -5.53911e+10 4.49125e+11 -5.06464e+11 -1.30093e+11 -7.73082e+11)
(-2.43799e+10 -8.23244e+10 2.61091e+11 -1.90452e+10 6.17032e+11 -1.55976e+10)
(4.89634e+11 -1.18377e+10 3.52433e+11 5.34167e+11 1.57039e+12 8.9013e+11)
(7.07706e+11 1.0089e+11 5.96538e+11 7.75371e+11 2.10009e+12 1.30009e+12)
(5.21438e+11 1.80318e+11 7.90925e+11 6.04666e+11 1.92897e+12 9.84292e+11)
(1.20135e+11 1.80831e+11 7.87245e+11 2.09448e+11 1.25496e+12 2.85096e+11)
(-2.22353e+11 1.08756e+11 5.70595e+11 -1.26583e+11 5.18175e+11 -3.18182e+11)
(-3.23577e+11 1.61565e+10 2.49385e+11 -2.18747e+11 1.12442e+11 -5.06317e+11)
(-1.72704e+11 -4.8577e+10 -3.50727e+10 -7.58818e+10 1.89786e+11 -2.44218e+11)
(1.05831e+11 -7.34849e+10 -1.88529e+11 1.82011e+11 6.26096e+11 2.49627e+11)
(3.52012e+11 -6.69333e+10 -1.99673e+11 4.31277e+11 1.11935e+12 6.80865e+11)
(4.26081e+11 -3.2156e+10 -1.32889e+11 5.5883e+11 1.34976e+12 7.84381e+11)
(2.68981e+11 2.128e+10 -9.4256e+10 4.58429e+11 1.18399e+12 4.71477e+11)
(-1.90272e+10 4.11412e+10 -1.82863e+11 1.3906e+11 7.97711e+11 -2.50504e+10)
(-2.20502e+11 -1.66097e+10 -4.08543e+11 -1.44215e+11 5.29546e+11 -3.59288e+11)
(-1.29196e+11 -1.14352e+11 -6.49773e+11 -1.06286e+11 6.88072e+11 -2.01157e+11)
(2.58071e+11 -1.64465e+11 -7.3826e+11 2.98468e+11 1.28378e+12 4.5401e+11)
(7.00099e+11 -1.11316e+11 -5.9436e+11 7.98323e+11 1.97268e+12 1.19603e+12)
(9.33679e+11 1.46143e+09 -2.87957e+11 1.03717e+12 2.34884e+12 1.58786e+12)
(9.08406e+11 6.21372e+10 5.67574e+10 9.18703e+11 2.21871e+12 1.53921e+12)
(8.46724e+11 1.30054e+10 3.9607e+11 7.03881e+11 1.67972e+12 1.46697e+12)
(9.27107e+11 -8.14217e+10 7.80501e+11 6.60296e+11 1.01517e+12 1.73496e+12)
(9.3984e+11 -9.18203e+10 1.21313e+12 6.48316e+11 5.61062e+11 1.89195e+12)
(4.45456e+11 3.48823e+10 1.53003e+12 3.90371e+10 6.07483e+11 -6.57247e+10)
(-2.14949e+12 1.91578e+11 1.54881e+12 -3.42721e+12 7.44566e+11 -1.05095e+13)
(-5.26428e+11 -3.62241e+11 7.80948e+10 1.4916e+11 4.08871e+12 -3.80515e+12)
(-5.77263e+11 -1.35369e+11 1.04059e+12 -3.6771e+11 4.55504e+12 -2.10282e+12)
(-7.02033e+11 -6.09686e+10 1.54469e+12 -6.45888e+11 2.93307e+12 -1.75045e+12)
(-1.0031e+12 -1.23799e+10 1.48257e+12 -9.28493e+11 1.06444e+12 -1.91166e+12)
(-1.18537e+12 -1.09779e+10 9.54995e+11 -1.11529e+12 -1.04743e+11 -2.03557e+12)
(-1.10451e+12 -2.79418e+10 3.56753e+11 -1.07276e+12 -1.85759e+11 -1.95457e+12)
(-8.05783e+11 -1.70468e+10 8.25593e+10 -8.05383e+11 5.9123e+11 -1.66373e+12)
(-4.59958e+11 3.46801e+10 2.53604e+11 -4.73233e+11 1.57721e+12 -1.25037e+12)
(-2.75099e+11 9.62066e+10 6.7458e+11 -2.73201e+11 2.12484e+12 -9.55442e+11)
(-3.25038e+11 1.29867e+11 1.02199e+12 -2.73252e+11 1.9602e+12 -9.18571e+11)
(-4.95327e+11 1.16619e+11 1.05781e+12 -3.8525e+11 1.28226e+12 -1.0124e+12)
(-6.35588e+11 6.57629e+10 7.57726e+11 -4.82343e+11 5.41558e+11 -1.0956e+12)
(-6.49495e+11 9.75317e+09 2.94663e+11 -4.83998e+11 1.38057e+11 -1.07602e+12)
(-5.33457e+11 -2.48514e+10 -1.10311e+11 -3.95628e+11 2.1555e+11 -9.30432e+11)
(-3.63827e+11 -3.53988e+10 -3.17479e+11 -2.7199e+11 6.49893e+11 -7.41085e+11)
(-2.37322e+11 -3.17072e+10 -3.0833e+11 -1.65053e+11 1.1517e+12 -6.32298e+11)
(-2.35639e+11 -1.81284e+10 -1.6591e+11 -1.25891e+11 1.41039e+12 -7.12504e+11)
(-3.78172e+11 1.87814e+09 -4.3457e+10 -2.06685e+11 1.26909e+12 -9.59471e+11)
(-5.79193e+11 4.99401e+09 -1.14516e+11 -3.99714e+11 8.5998e+11 -1.18723e+12)
(-7.21395e+11 -2.83344e+10 -4.29032e+11 -5.84738e+11 5.48533e+11 -1.32138e+12)
(-7.02032e+11 -7.65432e+10 -8.09264e+11 -6.1931e+11 6.85587e+11 -1.32539e+12)
(-5.20792e+11 -9.43041e+10 -9.7113e+11 -4.65117e+11 1.30047e+12 -1.20748e+12)
(-3.01691e+11 -5.72877e+10 -7.64393e+11 -2.37912e+11 2.03107e+12 -1.04981e+12)
(-1.63597e+11 2.23525e+09 -3.08551e+11 -1.00328e+11 2.42311e+12 -8.88487e+11)
(-1.21372e+11 1.57804e+10 1.43051e+11 -1.07451e+11 2.2599e+12 -7.20704e+11)
(-5.10951e+10 -4.42702e+10 4.65726e+11 -1.39591e+11 1.65352e+12 -4.17075e+11)
(1.10962e+11 -1.20557e+11 7.50056e+11 -9.41078e+10 9.18356e+11 4.89675e+10)
(1.47302e+11 -1.05843e+11 1.11939e+12 -1.36783e+11 4.19119e+11 1.73134e+11)
(-2.48401e+11 4.36931e+10 1.52349e+12 -7.72559e+11 5.18687e+11 -1.74172e+12)
(-2.41799e+12 1.66992e+11 1.70005e+12 -4.08454e+12 9.85806e+11 -1.17784e+13)
(-1.12557e+12 -3.19702e+11 -2.87984e+11 -1.22719e+12 4.72748e+12 -6.65009e+12)
(-1.52117e+12 -2.20584e+11 9.27815e+11 -1.6416e+12 4.60686e+12 -4.46977e+12)
(-1.58565e+12 -1.66666e+11 1.65641e+12 -1.67725e+12 2.8681e+12 -3.668e+12)
(-1.67396e+12 -1.0629e+11 1.62463e+12 -1.64147e+12 9.97315e+11 -3.23921e+12)
(-1.69692e+12 -5.36651e+10 1.00602e+12 -1.61918e+12 -1.79385e+11 -2.96783e+12)
(-1.60393e+12 -6.76657e+09 2.93772e+11 -1.58209e+12 -2.6892e+11 -2.87972e+12)
(-1.41433e+12 3.73561e+10 -2.46976e+10 -1.48718e+12 5.14798e+11 -2.88982e+12)
(-1.18631e+12 7.45195e+10 2.051e+11 -1.32723e+12 1.51532e+12 -2.7971e+12)
(-1.02208e+12 9.31678e+10 7.44594e+11 -1.15486e+12 2.08108e+12 -2.57114e+12)
(-9.69214e+11 8.76061e+10 1.1924e+12 -1.0119e+12 1.9395e+12 -2.28531e+12)
(-9.6844e+11 6.17547e+10 1.25192e+12 -8.91158e+11 1.28181e+12 -1.95908e+12)
(-9.58879e+11 2.79972e+10 8.92937e+11 -7.92305e+11 5.55149e+11 -1.6803e+12)
(-9.06609e+11 2.88739e+09 3.31328e+11 -7.1876e+11 1.57257e+11 -1.51169e+12)
(-8.14806e+11 -5.34098e+09 -1.57525e+11 -6.74097e+11 2.28682e+11 -1.44367e+12)
(-7.2447e+11 -2.69475e+09 -4.01664e+11 -6.59498e+11 6.52043e+11 -1.46449e+12)
(-6.8415e+11 -1.04634e+09 -3.78199e+11 -6.66884e+11 1.1532e+12 -1.57404e+12)
(-7.31625e+11 -5.60864e+09 -1.86716e+11 -6.96011e+11 1.43108e+12 -1.76733e+12)
(-8.60505e+11 -1.37255e+10 -1.54365e+10 -7.58488e+11 1.31167e+12 -1.95833e+12)
(-1.00269e+12 -2.45721e+10 -8.25955e+10 -8.53853e+11 8.93896e+11 -2.0167e+12)
(-1.10938e+12 -3.76756e+10 -4.57161e+11 -9.67409e+11 5.53107e+11 -2.03977e+12)
(-1.14776e+12 -4.44781e+10 -9.23557e+11 -1.06677e+12 6.6589e+11 -2.17144e+12)
(-1.11714e+12 -3.48185e+10 -1.12624e+12 -1.11643e+12 1.27862e+12 -2.41961e+12)
(-1.05817e+12 -1.07139e+10 -8.75227e+11 -1.10712e+12 2.02708e+12 -2.64926e+12)
(-9.90421e+11 4.27804e+09 -3.26019e+11 -1.04989e+12 2.42986e+12 -2.64182e+12)
(-9.05401e+11 -2.29064e+10 1.84032e+11 -9.69356e+11 2.25017e+12 -2.33945e+12)
(-7.4985e+11 -9.47247e+10 4.79757e+11 -8.60414e+11 1.59799e+12 -1.80587e+12)
(-5.38325e+11 -1.58641e+11 6.81689e+11 -7.51792e+11 7.98878e+11 -1.23365e+12)
(-4.86721e+11 -1.24981e+11 1.00291e+12 -8.26794e+11 2.42306e+11 -1.15082e+12)
(-7.909e+11 4.22858e+10 1.48752e+12 -1.47593e+12 3.61795e+11 -2.98651e+12)
(-2.57549e+12 1.40067e+11 1.80015e+12 -4.59984e+12 1.10162e+12 -1.24771e+13)
(-1.47711e+12 -2.76132e+11 -5.68586e+11 -2.29277e+12 5.1419e+12 -8.18016e+12)
(-2.16e+12 -2.82122e+11 7.89571e+11 -2.6253e+12 4.51022e+12 -5.97253e+12)
(-2.22314e+12 -2.47265e+11 1.67165e+12 -2.4913e+12 2.70557e+12 -4.98886e+12)
(-2.17707e+12 -1.80557e+11 1.6675e+12 -2.22833e+12 8.68594e+11 -4.20473e+12)
(-2.09384e+12 -8.93892e+10 1.01131e+12 -2.05684e+12 -2.95579e+11 -3.68757e+12)
(-1.99288e+12 7.20805e+09 2.52333e+11 -2.02577e+12 -3.99052e+11 -3.5919e+12)
(-1.87631e+12 7.8467e+10 -7.59576e+10 -2.05773e+12 3.67204e+11 -3.78143e+12)
(-1.72665e+12 1.0611e+11 1.96869e+11 -2.02257e+12 1.36223e+12 -3.88048e+12)
(-1.57296e+12 9.25423e+10 8.08465e+11 -1.86486e+12 1.94582e+12 -3.68735e+12)
(-1.44403e+12 5.63949e+10 1.31393e+12 -1.60655e+12 1.84628e+12 -3.22999e+12)
(-1.32021e+12 1.96615e+10 1.38351e+12 -1.30331e+12 1.23697e+12 -2.6239e+12)
(-1.20325e+12 -2.19039e+09 9.84563e+11 -1.05156e+12 5.46114e+11 -2.10442e+12)
(-1.10267e+12 -3.95578e+09 3.59342e+11 -9.18661e+11 1.59607e+11 -1.83432e+12)
(-1.02707e+12 8.79963e+09 -1.82866e+11 -9.07341e+11 2.1845e+11 -1.81572e+12)
(-9.91996e+11 2.26825e+10 -4.49458e+11 -9.76653e+11 6.19367e+11 -1.97375e+12)
(-1.01061e+12 2.33424e+10 -4.16259e+11 -1.07037e+12 1.10788e+12 -2.22088e+12)
(-1.08898e+12 4.83355e+09 -1.97266e+11 -1.14803e+12 1.39487e+12 -2.47486e+12)
(-1.20554e+12 -2.47603e+10 -4.7266e+09 -1.19376e+12 1.29598e+12 -2.61987e+12)
(-1.31013e+12 -4.63815e+10 -7.82684e+10 -1.21892e+12 8.8401e+11 -2.58079e+12)
(-1.39855e+12 -4.46644e+10 -4.90175e+11 -1.28617e+12 5.27177e+11 -2.55539e+12)
(-1.48218e+12 -2.02962e+10 -1.00133e+12 -1.44184e+12 6.10527e+11 -2.78599e+12)
(-1.55783e+12 1.06305e+10 -1.21925e+12 -1.64912e+12 1.19623e+12 -3.27126e+12)
(-1.60918e+12 2.59093e+10 -9.38226e+11 -1.80391e+12 1.93534e+12 -3.74067e+12)
(-1.59142e+12 7.49262e+09 -3.39618e+11 -1.80607e+12 2.34198e+12 -3.82817e+12)
(-1.48244e+12 -5.19882e+10 1.89772e+11 -1.66031e+12 2.16293e+12 -3.44967e+12)
(-1.27838e+12 -1.36081e+11 4.47941e+11 -1.45044e+12 1.4888e+12 -2.79429e+12)
(-1.04422e+12 -1.9436e+11 5.78568e+11 -1.30408e+12 6.354e+11 -2.18847e+12)
(-9.86357e+11 -1.48734e+11 8.61443e+11 -1.41358e+12 1.17738e+10 -2.15906e+12)
(-1.20893e+12 3.16164e+10 1.41835e+12 -2.0662e+12 1.20514e+11 -3.89487e+12)
(-2.64329e+12 1.1224e+11 1.85167e+12 -4.97431e+12 1.07398e+12 -1.27316e+13)
(-1.63322e+12 -2.32936e+11 -7.68919e+11 -3.06538e+12 5.2799e+12 -8.69817e+12)
(-2.55993e+12 -3.19235e+11 6.43758e+11 -3.33992e+12 4.2619e+12 -6.8225e+12)
(-2.66347e+12 -3.0308e+11 1.61601e+12 -3.10012e+12 2.44737e+12 -5.85571e+12)
(-2.54216e+12 -2.35236e+11 1.63391e+12 -2.69141e+12 6.73491e+11 -4.8886e+12)
(-2.39351e+12 -1.17828e+11 9.79846e+11 -2.42458e+12 -4.6272e+11 -4.23547e+12)
(-2.28889e+12 1.43265e+10 2.25217e+11 -2.40102e+12 -5.85205e+11 -4.13494e+12)
(-2.2191e+12 1.06383e+11 -8.59572e+10 -2.52037e+12 1.42466e+11 -4.41916e+12)
(-2.11821e+12 1.29396e+11 2.19127e+11 -2.56836e+12 1.11436e+12 -4.61737e+12)
(-1.96729e+12 9.44416e+10 8.68206e+11 -2.4139e+12 1.71598e+12 -4.42946e+12)
(-1.78271e+12 3.66658e+10 1.39854e+12 -2.06537e+12 1.67666e+12 -3.85538e+12)
(-1.57275e+12 -9.01312e+09 1.46685e+12 -1.62509e+12 1.14256e+12 -3.07088e+12)
(-1.38137e+12 -2.41567e+10 1.04139e+12 -1.25971e+12 5.08577e+11 -2.40001e+12)
(-1.24697e+12 -1.04198e+10 3.7904e+11 -1.08253e+12 1.3987e+11 -2.06556e+12)
(-1.18178e+12 1.74577e+10 -1.92412e+11 -1.09564e+12 1.80307e+11 -2.07714e+12)
(-1.18329e+12 4.03146e+10 -4.69406e+11 -1.2261e+12 5.47409e+11 -2.31835e+12)
(-1.23964e+12 4.11346e+10 -4.2963e+11 -1.3807e+12 1.01145e+12 -2.64315e+12)
(-1.33522e+12 1.31787e+10 -1.99523e+11 -1.48936e+12 1.29855e+12 -2.92089e+12)
(-1.44098e+12 -3.12672e+10 -6.05478e+09 -1.52011e+12 1.2198e+12 -3.029e+12)
(-1.52321e+12 -6.0735e+10 -9.32086e+10 -1.49867e+12 8.25898e+11 -2.94185e+12)
(-1.6051e+12 -4.97267e+10 -5.25778e+11 -1.54076e+12 4.6343e+11 -2.90924e+12)
(-1.72343e+12 -4.45141e+09 -1.05144e+12 -1.7442e+12 5.10941e+11 -3.21573e+12)
(-1.87129e+12 4.16322e+10 -1.26575e+12 -2.06764e+12 1.0459e+12 -3.84532e+12)
(-1.9951e+12 5.22393e+10 -9.64733e+11 -2.33871e+12 1.75049e+12 -4.44901e+12)
(-2.01154e+12 1.16817e+10 -3.48767e+11 -2.38118e+12 2.15457e+12 -4.58789e+12)
(-1.8923e+12 -7.13773e+10 1.70197e+11 -2.18933e+12 1.99174e+12 -4.17239e+12)
(-1.6674e+12 -1.67856e+11 3.80261e+11 -1.91363e+12 1.31782e+12 -3.47103e+12)
(-1.43197e+12 -2.26946e+11 4.44441e+11 -1.75247e+12 4.20286e+11 -2.88613e+12)
(-1.37666e+12 -1.76108e+11 6.93503e+11 -1.89931e+12 -2.7798e+11 -2.92358e+12)
(-1.52942e+12 1.31492e+10 1.31362e+12 -2.54849e+12 -2.07143e+11 -4.55276e+12)
(-2.64273e+12 8.424e+10 1.85819e+12 -5.21637e+12 9.0302e+11 -1.26626e+13)
(-1.6479e+12 -1.91257e+11 -9.00221e+11 -3.58216e+12 5.12623e+12 -8.50432e+12)
(-2.78016e+12 -3.33673e+11 5.00786e+11 -3.81933e+12 3.87795e+12 -7.2017e+12)
(-2.9499e+12 -3.37131e+11 1.51036e+12 -3.52563e+12 2.10883e+12 -6.38633e+12)
(-2.79632e+12 -2.72653e+11 1.54393e+12 -3.03897e+12 4.17559e+11 -5.35886e+12)
(-2.61293e+12 -1.39577e+11 9.20073e+11 -2.72204e+12 -6.81848e+11 -4.64881e+12)
(-2.50898e+12 1.56211e+10 2.06427e+11 -2.70807e+12 -8.28121e+11 -4.54855e+12)
(-2.46781e+12 1.2262e+11 -6.7635e+10 -2.88307e+12 -1.55405e+11 -4.87167e+12)
(-2.39435e+12 1.4516e+11 2.6312e+11 -2.98016e+12 7.79949e+11 -5.10531e+12)
(-2.24043e+12 9.84995e+10 9.2555e+11 -2.81987e+12 1.4006e+12 -4.90202e+12)
(-2.01529e+12 2.72817e+10 1.45699e+12 -2.40272e+12 1.43721e+12 -4.24795e+12)
(-1.74668e+12 -2.54127e+10 1.51493e+12 -1.86421e+12 1.00107e+12 -3.35529e+12)
(-1.50571e+12 -3.83963e+10 1.07164e+12 -1.419e+12 4.41914e+11 -2.59634e+12)
(-1.34883e+12 -1.62857e+10 3.91011e+11 -1.21108e+12 9.68955e+10 -2.2255e+12)
(-1.29005e+12 2.11707e+10 -1.91581e+11 -1.2415e+12 1.14171e+11 -2.25499e+12)
(-1.31416e+12 5.07693e+10 -4.6934e+11 -1.41375e+12 4.37577e+11 -2.5411e+12)
(-1.3924e+12 5.28624e+10 -4.24807e+11 -1.60755e+12 8.67043e+11 -2.90102e+12)
(-1.49539e+12 1.9693e+10 -1.95189e+11 -1.73272e+12 1.14735e+12 -3.17776e+12)
(-1.59186e+12 -3.37686e+10 -1.47819e+10 -1.75034e+12 1.08911e+12 -3.25657e+12)
(-1.66217e+12 -6.87036e+10 -1.20305e+11 -1.70112e+12 7.22358e+11 -3.15338e+12)
(-1.74495e+12 -5.33852e+10 -5.62242e+11 -1.73424e+12 3.61155e+11 -3.13879e+12)
(-1.88935e+12 3.711e+09 -1.08196e+12 -1.9772e+12 3.66084e+11 -3.50346e+12)
(-2.08412e+12 5.95767e+10 -1.27969e+12 -2.38187e+12 8.30218e+11 -4.21366e+12)
(-2.25265e+12 6.92259e+10 -9.64934e+11 -2.72946e+12 1.47964e+12 -4.87976e+12)
(-2.29151e+12 1.66004e+10 -3.53112e+11 -2.79607e+12 1.87635e+12 -5.03899e+12)
(-2.1716e+12 -8.20804e+10 1.34097e+11 -2.57333e+12 1.74299e+12 -4.61061e+12)
(-1.94585e+12 -1.90669e+11 2.8593e+11 -2.26042e+12 1.08793e+12 -3.91332e+12)
(-1.72536e+12 -2.56017e+11 2.83307e+11 -2.10382e+12 1.55286e+11 -3.38803e+12)
(-1.68058e+12 -2.05878e+11 4.98561e+11 -2.29113e+12 -6.2373e+11 -3.50534e+12)
(-1.77635e+12 -1.13168e+10 1.17231e+12 -2.93217e+12 -6.13762e+11 -5.03232e+12)
(-2.59304e+12 5.64079e+10 1.82364e+12 -5.33716e+12 6.03164e+11 -1.23755e+13)
(-1.57258e+12 -1.51857e+11 -9.77593e+11 -3.88927e+12 4.695e+12 -7.87798e+12)
(-2.87e+12 -3.28527e+11 3.64385e+11 -4.10148e+12 3.3848e+12 -7.25894e+12)
(-3.11763e+12 -3.53558e+11 1.37015e+12 -3.79292e+12 1.71151e+12 -6.67201e+12)
(-2.96178e+12 -2.96067e+11 1.41416e+12 -3.28127e+12 1.12599e+11 -5.66867e+12)
(-2.76651e+12 -1.55638e+11 8.39419e+11 -2.94999e+12 -9.47591e+11 -4.95815e+12)
(-2.66756e+12 1.24029e+10 1.91371e+11 -2.94797e+12 -1.12207e+12 -4.86511e+12)
(-2.64321e+12 1.29299e+11 -3.16383e+10 -3.1546e+12 -5.15646e+11 -5.19315e+12)
(-2.58247e+12 1.54503e+11 3.21389e+11 -3.27472e+12 3.74343e+11 -5.42061e+12)
(-2.42156e+12 1.04e+11 9.81658e+11 -3.10215e+12 1.01573e+12 -5.18707e+12)
(-2.16685e+12 2.61986e+10 1.49805e+12 -2.6346e+12 1.14061e+12 -4.47631e+12)
(-1.85961e+12 -3.16984e+10 1.53863e+12 -2.02985e+12 8.19921e+11 -3.522e+12)
(-1.58731e+12 -4.60749e+10 1.08241e+12 -1.53284e+12 3.49309e+11 -2.71815e+12)
(-1.41657e+12 -2.14537e+10 3.95987e+11 -1.30589e+12 3.2638e+10 -2.3313e+12)
(-1.36153e+12 2.0826e+10 -1.84841e+11 -1.3482e+12 2.31111e+10 -2.37146e+12)
(-1.39815e+12 5.51626e+10 -4.55914e+11 -1.54649e+12 2.95077e+11 -2.67668e+12)
(-1.48686e+12 5.94929e+10 -4.07279e+11 -1.76193e+12 6.82361e+11 -3.04293e+12)
(-1.59054e+12 2.47335e+10 -1.85633e+11 -1.89237e+12 9.51252e+11 -3.30297e+12)
(-1.67912e+12 -3.30174e+10 -2.71039e+10 -1.89872e+12 9.14297e+11 -3.35837e+12)
(-1.74434e+12 -7.16148e+10 -1.53874e+11 -1.83578e+12 5.80638e+11 -3.25852e+12)
(-1.83223e+12 -5.60531e+10 -5.98322e+11 -1.87116e+12 2.24398e+11 -3.27576e+12)
(-1.99573e+12 5.50769e+09 -1.09963e+12 -2.14573e+12 1.80405e+11 -3.68541e+12)
(-2.21909e+12 6.67853e+10 -1.2726e+12 -2.60335e+12 5.58179e+11 -4.43464e+12)
(-2.41273e+12 7.84508e+10 -9.47343e+11 -2.99604e+12 1.1372e+12 -5.1169e+12)