/*--------------------------------*- C++ -*----------------------------------*\
| =========                 |                                                 |
| \\      /  F ield         | OpenFOAM: The Open Source CFD Toolbox           |
|  \\    /   O peration     | Version:  2106                                  |
|   \\  /    A nd           | Website:  www.openfoam.com                      |
|    \\/     M anipulation  |                                                 |
\*---------------------------------------------------------------------------*/
FoamFile
{
    version     2.0;
    format      ascii;
    arch        "LSB;label=32;scalar=64";
    class       volVectorField;
    location    "817";
    object      D;
}
// * * * * * * * * * * * * * * * * * * * * * * * * * * * * * * * * * * * * * //

dimensions      [0 1 0 0 0 0 0];

internalField   nonuniform List<vector> 
9000
(
(1.14009e-05 2.08533e-05 3.13269e-06)
(1.3249e-06 2.19596e-05 8.18199e-08)
(2.18769e-07 2.33117e-05 1.22927e-06)
(3.86912e-08 2.36142e-05 1.44267e-06)
(4.71361e-09 2.36232e-05 1.44574e-06)
(1.79975e-09 2.35884e-05 1.42373e-06)
(2.13088e-09 2.36077e-05 1.43563e-06)
(9.32905e-10 2.35875e-05 1.42352e-06)
(2.17155e-09 2.35869e-05 1.42307e-06)
(3.21738e-10 2.36141e-05 1.44047e-06)
(-2.19655e-09 2.35985e-05 1.42891e-06)
(1.93796e-09 2.3571e-05 1.41071e-06)
(3.04135e-09 2.36102e-05 1.43809e-06)
(-1.12435e-09 2.36111e-05 1.43828e-06)
(1.35875e-10 2.36022e-05 1.43086e-06)
(1.15824e-09 2.36152e-05 1.44093e-06)
(-1.61987e-09 2.36109e-05 1.43808e-06)
(-2.88711e-10 2.36028e-05 1.43129e-06)
(-1.61786e-09 2.36118e-05 1.43911e-06)
(-1.73408e-09 2.3573e-05 1.41249e-06)
(1.48483e-09 2.35844e-05 1.4214e-06)
(1.09456e-10 2.36128e-05 1.43953e-06)
(-2.3036e-09 2.36151e-05 1.4411e-06)
(-2.20753e-09 2.35897e-05 1.42487e-06)
(-2.2263e-09 2.36104e-05 1.43835e-06)
(-7.37208e-09 2.35978e-05 1.42946e-06)
(-3.81417e-08 2.35957e-05 1.4294e-06)
(-2.17052e-07 2.33053e-05 1.22528e-06)
(-1.32475e-06 2.19591e-05 8.15489e-08)
(-1.14011e-05 2.08522e-05 3.13214e-06)
(1.10743e-05 1.2564e-05 -5.84691e-06)
(1.22251e-06 1.31887e-05 -9.25912e-06)
(1.428e-07 1.40062e-05 -8.68762e-06)
(2.10334e-08 1.42109e-05 -8.60731e-06)
(5.18069e-09 1.42168e-05 -8.60818e-06)
(2.80222e-09 1.41994e-05 -8.60651e-06)
(2.20912e-09 1.42058e-05 -8.60991e-06)
(1.42591e-09 1.41996e-05 -8.6057e-06)
(1.2339e-09 1.41991e-05 -8.60597e-06)
(9.30473e-10 1.42096e-05 -8.60942e-06)
(4.36524e-10 1.42062e-05 -8.60728e-06)
(6.23634e-10 1.41956e-05 -8.60353e-06)
(4.90399e-10 1.42065e-05 -8.6098e-06)
(-1.01149e-10 1.42054e-05 -8.60885e-06)
(-4.24995e-11 1.42088e-05 -8.60723e-06)
(-2.19026e-11 1.42105e-05 -8.60937e-06)
(-2.95467e-10 1.42053e-05 -8.60889e-06)
(-1.8406e-10 1.42091e-05 -8.60717e-06)
(-4.13707e-10 1.42082e-05 -8.60949e-06)
(-6.93351e-10 1.4197e-05 -8.60349e-06)
(-9.38866e-10 1.41976e-05 -8.60545e-06)
(-1.21801e-09 1.4208e-05 -8.61013e-06)
(-1.56312e-09 1.42104e-05 -8.60936e-06)
(-1.94918e-09 1.42007e-05 -8.6058e-06)
(-2.59272e-09 1.42063e-05 -8.61017e-06)
(-5.38029e-09 1.42075e-05 -8.6044e-06)
(-2.10649e-08 1.42053e-05 -8.60521e-06)
(-1.42839e-07 1.39996e-05 -8.68764e-06)
(-1.22263e-06 1.31883e-05 -9.2591e-06)
(-1.10743e-05 1.25628e-05 -5.84717e-06)
(1.11452e-05 7.77715e-06 -7.41058e-06)
(1.21847e-06 8.20001e-06 -1.09328e-05)
(1.29719e-07 8.7472e-06 -1.04557e-05)
(1.54888e-08 8.8942e-06 -1.04013e-05)
(5.32582e-09 8.90014e-06 -1.04033e-05)
(3.14313e-09 8.8947e-06 -1.04005e-05)
(2.22236e-09 8.89172e-06 -1.04036e-05)
(1.81568e-09 8.89701e-06 -1.04005e-05)
(7.11051e-10 8.89633e-06 -1.04008e-05)
(8.19969e-10 8.89482e-06 -1.04035e-05)
(1.50253e-09 8.89236e-06 -1.04027e-05)
(3.17081e-10 8.89426e-06 -1.03991e-05)
(-7.87052e-10 8.89121e-06 -1.04021e-05)
(8.72973e-11 8.89509e-06 -1.04018e-05)
(1.19917e-10 8.8944e-06 -1.04029e-05)
(-5.42676e-10 8.89552e-06 -1.04036e-05)
(3.66499e-11 8.89509e-06 -1.04019e-05)
(1.51323e-10 8.89443e-06 -1.04029e-05)
(2.34936e-10 8.89395e-06 -1.04032e-05)
(-1.26945e-10 8.89522e-06 -1.03996e-05)
(-1.84082e-09 8.89592e-06 -1.03997e-05)
(-1.94536e-09 8.89211e-06 -1.04031e-05)
(-1.11613e-09 8.89555e-06 -1.04036e-05)
(-1.85413e-09 8.89688e-06 -1.04011e-05)
(-2.68234e-09 8.89066e-06 -1.04032e-05)
(-4.51921e-09 8.90253e-06 -1.04001e-05)
(-1.61535e-08 8.89048e-06 -1.04001e-05)
(-1.30367e-07 8.74564e-06 -1.04539e-05)
(-1.21851e-06 8.19981e-06 -1.09326e-05)
(-1.1145e-05 7.77553e-06 -7.41105e-06)
(1.15308e-05 4.89017e-06 -7.09793e-06)
(1.26089e-06 5.15978e-06 -1.0743e-05)
(1.42504e-07 5.5574e-06 -1.02383e-05)
(1.66393e-08 5.66389e-06 -1.018e-05)
(4.84613e-09 5.66962e-06 -1.01823e-05)
(3.11113e-09 5.66624e-06 -1.01821e-05)
(2.32773e-09 5.66252e-06 -1.01824e-05)
(1.69791e-09 5.66732e-06 -1.01835e-05)
(9.09126e-10 5.66569e-06 -1.01827e-05)
(9.82915e-10 5.66608e-06 -1.01823e-05)
(1.40656e-09 5.66421e-06 -1.01823e-05)
(1.3455e-10 5.66529e-06 -1.01824e-05)
(-5.93076e-10 5.66565e-06 -1.01811e-05)
(2.8474e-10 5.671e-06 -1.01821e-05)
(1.17998e-11 5.66615e-06 -1.01822e-05)
(-4.428e-10 5.6667e-06 -1.01825e-05)
(4.58166e-11 5.67096e-06 -1.01823e-05)
(1.19223e-10 5.66613e-06 -1.01822e-05)
(5.14283e-11 5.66546e-06 -1.01816e-05)
(-3.39079e-10 5.66614e-06 -1.01831e-05)
(-1.78958e-09 5.6666e-06 -1.01826e-05)
(-1.82153e-09 5.66572e-06 -1.01815e-05)
(-1.15763e-09 5.66684e-06 -1.01825e-05)
(-2.03058e-09 5.66585e-06 -1.01834e-05)
(-2.64393e-09 5.66344e-06 -1.01812e-05)
(-4.10955e-09 5.67097e-06 -1.01828e-05)
(-1.69827e-08 5.66141e-06 -1.01794e-05)
(-1.43174e-07 5.56055e-06 -1.02373e-05)
(-1.26115e-06 5.15971e-06 -1.07428e-05)
(-1.15301e-05 4.88774e-06 -7.09773e-06)
(1.20056e-05 3.08832e-06 -6.6853e-06)
(1.31976e-06 3.23565e-06 -1.04719e-05)
(1.60888e-07 3.53283e-06 -9.93139e-06)
(1.98354e-08 3.6101e-06 -9.86561e-06)
(4.65116e-09 3.61481e-06 -9.86755e-06)
(2.7595e-09 3.61725e-06 -9.86871e-06)
(2.34365e-09 3.61104e-06 -9.86823e-06)
(1.59206e-09 3.61405e-06 -9.86904e-06)
(1.09079e-09 3.61413e-06 -9.86856e-06)
(1.20547e-09 3.61289e-06 -9.868e-06)
(1.13027e-09 3.61109e-06 -9.86793e-06)
(2.281e-10 3.6124e-06 -9.86838e-06)
(-3.43181e-10 3.61536e-06 -9.86859e-06)
(2.63855e-10 3.61644e-06 -9.86939e-06)
(5.32409e-11 3.61343e-06 -9.86813e-06)
(-4.10304e-10 3.61341e-06 -9.8685e-06)
(-1.08893e-11 3.61633e-06 -9.8695e-06)
(1.2197e-10 3.61341e-06 -9.86814e-06)
(-1.85349e-10 3.61244e-06 -9.86737e-06)
(-5.5348e-10 3.61311e-06 -9.86886e-06)
(-1.45724e-09 3.61356e-06 -9.86843e-06)
(-1.57242e-09 3.61481e-06 -9.86807e-06)
(-1.47661e-09 3.61393e-06 -9.86834e-06)
(-2.19839e-09 3.61402e-06 -9.86894e-06)
(-2.41115e-09 3.61409e-06 -9.86814e-06)
(-4.06142e-09 3.61619e-06 -9.86821e-06)
(-2.0122e-08 3.60821e-06 -9.8653e-06)
(-1.61367e-07 3.53446e-06 -9.93218e-06)
(-1.32011e-06 3.23565e-06 -1.04717e-05)
(-1.20041e-05 3.08796e-06 -6.68504e-06)
(1.24203e-05 1.94913e-06 -6.45411e-06)
(1.37753e-06 2.01605e-06 -1.03624e-05)
(1.77614e-07 2.23316e-06 -9.79613e-06)
(2.32634e-08 2.2923e-06 -9.72609e-06)
(4.85441e-09 2.29788e-06 -9.72805e-06)
(2.60238e-09 2.3004e-06 -9.73019e-06)
(2.21036e-09 2.2966e-06 -9.72911e-06)
(1.67405e-09 2.2964e-06 -9.72913e-06)
(1.09948e-09 2.29826e-06 -9.7294e-06)
(1.0017e-09 2.29478e-06 -9.72863e-06)
(9.51894e-10 2.29533e-06 -9.72876e-06)
(3.39712e-10 2.29432e-06 -9.72837e-06)
(-8.94117e-11 2.29603e-06 -9.72985e-06)
(3.47692e-10 2.29776e-06 -9.72936e-06)
(4.73441e-11 2.29589e-06 -9.72869e-06)
(-3.46483e-10 2.29506e-06 -9.72874e-06)
(-4.3323e-11 2.29763e-06 -9.7294e-06)
(-2.07742e-11 2.29592e-06 -9.72874e-06)
(-3.45345e-10 2.29422e-06 -9.7281e-06)
(-5.9247e-10 2.29531e-06 -9.72914e-06)
(-1.3983e-09 2.2957e-06 -9.72866e-06)
(-1.39171e-09 2.29773e-06 -9.72979e-06)
(-1.30503e-09 2.29636e-06 -9.72896e-06)
(-2.32909e-09 2.29741e-06 -9.72891e-06)
(-2.41251e-09 2.29813e-06 -9.73023e-06)
(-4.21285e-09 2.29728e-06 -9.72833e-06)
(-2.36872e-08 2.29004e-06 -9.72518e-06)
(-1.77897e-07 2.23404e-06 -9.79686e-06)
(-1.37768e-06 2.01607e-06 -1.03621e-05)
(-1.24184e-05 1.95095e-06 -6.45428e-06)
(1.27245e-05 1.22829e-06 -6.3438e-06)
(1.42541e-06 1.25134e-06 -1.03402e-05)
(1.90946e-07 1.40759e-06 -9.75745e-06)
(2.65539e-08 1.45111e-06 -9.68503e-06)
(5.13187e-09 1.45732e-06 -9.68683e-06)
(2.34681e-09 1.45743e-06 -9.68893e-06)
(2.11413e-09 1.45724e-06 -9.68871e-06)
(1.66817e-09 1.45492e-06 -9.68797e-06)
(9.67433e-10 1.456e-06 -9.68861e-06)
(1.02601e-09 1.45476e-06 -9.68815e-06)
(7.83562e-10 1.45573e-06 -9.68806e-06)
(1.22242e-10 1.45403e-06 -9.68805e-06)
(2.60202e-10 1.45463e-06 -9.68841e-06)
(5.21069e-10 1.45567e-06 -9.68795e-06)
(-8.65966e-11 1.45445e-06 -9.68773e-06)
(-2.6336e-10 1.45476e-06 -9.68798e-06)
(3.43742e-11 1.45556e-06 -9.68796e-06)
(-3.29083e-10 1.45452e-06 -9.68777e-06)
(-4.60774e-10 1.45386e-06 -9.6882e-06)
(-4.93277e-10 1.45333e-06 -9.68776e-06)
(-1.15058e-09 1.45339e-06 -9.68758e-06)
(-1.20087e-09 1.45716e-06 -9.68859e-06)
(-1.52175e-09 1.45495e-06 -9.68799e-06)
(-2.37113e-09 1.45624e-06 -9.68863e-06)
(-2.26971e-09 1.45748e-06 -9.68943e-06)
(-4.64897e-09 1.4546e-06 -9.68689e-06)
(-2.67756e-08 1.4498e-06 -9.68469e-06)
(-1.91007e-07 1.40809e-06 -9.75753e-06)
(-1.42556e-06 1.25136e-06 -1.03398e-05)
(-1.27232e-05 1.2296e-06 -6.3445e-06)
(1.29255e-05 7.73057e-07 -6.28832e-06)
(1.4612e-06 7.76241e-07 -1.03426e-05)
(2.01093e-07 8.86501e-07 -9.74942e-06)
(2.88656e-08 9.17289e-07 -9.67564e-06)
(5.40202e-09 9.2188e-07 -9.67765e-06)
(2.35126e-09 9.22105e-07 -9.67887e-06)
(1.99384e-09 9.23119e-07 -9.67948e-06)
(1.55225e-09 9.20598e-07 -9.67859e-06)
(1.06267e-09 9.21186e-07 -9.67881e-06)
(1.00077e-09 9.21901e-07 -9.67874e-06)
(6.23921e-10 9.21114e-07 -9.67895e-06)
(9.11639e-11 9.20741e-07 -9.6788e-06)
(3.51857e-10 9.22349e-07 -9.67915e-06)
(5.23238e-10 9.21051e-07 -9.67846e-06)
(-1.15162e-11 9.20143e-07 -9.67849e-06)
(-1.82943e-10 9.21777e-07 -9.67862e-06)
(-9.79073e-11 9.20944e-07 -9.67848e-06)
(-4.03127e-10 9.20256e-07 -9.67845e-06)
(-6.23739e-10 9.20415e-07 -9.67902e-06)
(-7.28891e-10 9.20121e-07 -9.67879e-06)
(-8.81308e-10 9.1959e-07 -9.67883e-06)
(-9.04434e-10 9.21935e-07 -9.67916e-06)
(-1.47202e-09 9.20669e-07 -9.67865e-06)
(-2.29489e-09 9.22726e-07 -9.67914e-06)
(-2.44849e-09 9.24045e-07 -9.67996e-06)
(-5.02448e-09 9.20985e-07 -9.67778e-06)
(-2.88229e-08 9.16624e-07 -9.67588e-06)
(-2.01081e-07 8.86654e-07 -9.74919e-06)
(-1.46139e-06 7.76117e-07 -1.0342e-05)
(-1.29249e-05 7.7396e-07 -6.28873e-06)
(1.305e-05 4.85802e-07 -6.25682e-06)
(1.48572e-06 4.82076e-07 -1.03471e-05)
(2.0868e-07 5.56997e-07 -9.74746e-06)
(3.06085e-08 5.7938e-07 -9.67276e-06)
(5.62328e-09 5.82718e-07 -9.67477e-06)
(2.38459e-09 5.83009e-07 -9.67571e-06)
(1.89709e-09 5.8358e-07 -9.67639e-06)
(1.49494e-09 5.82117e-07 -9.67574e-06)
(1.12092e-09 5.82442e-07 -9.67574e-06)
(9.68409e-10 5.8297e-07 -9.67571e-06)
(4.20181e-10 5.82437e-07 -9.67577e-06)
(2.47449e-10 5.8285e-07 -9.67646e-06)
(5.1002e-10 5.84336e-07 -9.67631e-06)
(3.29016e-10 5.82426e-07 -9.67559e-06)
(1.75239e-11 5.81553e-07 -9.67583e-06)
(-1.06926e-10 5.82804e-07 -9.67576e-06)
(-1.83079e-10 5.82339e-07 -9.67564e-06)
(-5.75754e-10 5.8181e-07 -9.67569e-06)
(-5.51365e-10 5.81999e-07 -9.67631e-06)
(-6.61252e-10 5.82716e-07 -9.6761e-06)
(-8.51354e-10 5.83242e-07 -9.67651e-06)
(-7.98185e-10 5.8293e-07 -9.67587e-06)
(-1.43981e-09 5.82216e-07 -9.67576e-06)
(-2.05831e-09 5.83463e-07 -9.67624e-06)
(-2.38915e-09 5.8526e-07 -9.67656e-06)
(-5.63205e-09 5.83422e-07 -9.6749e-06)
(-3.06401e-08 5.78773e-07 -9.67361e-06)
(-2.08484e-07 5.56933e-07 -9.7472e-06)
(-1.48587e-06 4.8179e-07 -1.03468e-05)
(-1.30499e-05 4.86535e-07 -6.25691e-06)
(1.31243e-05 3.04273e-07 -6.23761e-06)
(1.50156e-06 2.99597e-07 -1.03495e-05)
(2.14202e-07 3.49391e-07 -9.7456e-06)
(3.1923e-08 3.65317e-07 -9.67069e-06)
(5.82807e-09 3.67552e-07 -9.67273e-06)
(2.42667e-09 3.67981e-07 -9.6736e-06)
(1.83118e-09 3.68302e-07 -9.67388e-06)
(1.44561e-09 3.67474e-07 -9.67369e-06)
(1.12479e-09 3.67665e-07 -9.67366e-06)
(9.39606e-10 3.67926e-07 -9.67343e-06)
(4.91927e-10 3.67686e-07 -9.67357e-06)
(3.41446e-10 3.68854e-07 -9.67407e-06)
(4.35183e-10 3.68834e-07 -9.67404e-06)
(1.68084e-10 3.67702e-07 -9.67355e-06)
(3.61208e-12 3.66494e-07 -9.6737e-06)
(-1.51327e-11 3.67835e-07 -9.67365e-06)
(-2.20434e-10 3.67663e-07 -9.67361e-06)
(-6.32162e-10 3.67114e-07 -9.67385e-06)
(-5.2953e-10 3.68905e-07 -9.67441e-06)
(-5.0413e-10 3.67246e-07 -9.67406e-06)
(-7.7473e-10 3.68978e-07 -9.67459e-06)
(-8.91325e-10 3.67961e-07 -9.67363e-06)
(-1.41598e-09 3.67594e-07 -9.67368e-06)
(-1.90999e-09 3.68291e-07 -9.67382e-06)
(-2.37859e-09 3.69272e-07 -9.67407e-06)
(-5.98856e-09 3.68187e-07 -9.67294e-06)
(-3.20115e-08 3.66059e-07 -9.67171e-06)
(-2.13952e-07 3.49172e-07 -9.74545e-06)
(-1.50167e-06 2.99367e-07 -1.03494e-05)
(-1.31245e-05 3.05091e-07 -6.23741e-06)
(1.31676e-05 1.88934e-07 -6.2254e-06)
(1.51143e-06 1.85659e-07 -1.03504e-05)
(2.18099e-07 2.18093e-07 -9.74405e-06)
(3.28493e-08 2.29138e-07 -9.66896e-06)
(5.96017e-09 2.30068e-07 -9.67109e-06)
(2.51838e-09 2.30986e-07 -9.6719e-06)
(1.79179e-09 2.3121e-07 -9.672e-06)
(1.40127e-09 2.30751e-07 -9.672e-06)
(1.10031e-09 2.30893e-07 -9.67198e-06)
(9.09841e-10 2.31045e-07 -9.67188e-06)
(5.41981e-10 2.30848e-07 -9.67185e-06)
(4.08625e-10 2.31309e-07 -9.67244e-06)
(4.0555e-10 2.31558e-07 -9.67195e-06)
(-2.94465e-11 2.30946e-07 -9.67184e-06)
(8.51769e-13 2.30601e-07 -9.6724e-06)
(1.41306e-10 2.31072e-07 -9.6719e-06)
(-2.77179e-10 2.30951e-07 -9.67188e-06)
(-5.00899e-10 2.30034e-07 -9.67208e-06)
(-5.74139e-10 2.3262e-07 -9.67255e-06)
(-6.10541e-10 2.31069e-07 -9.67251e-06)
(-6.38194e-10 2.31068e-07 -9.67253e-06)
(-9.09174e-10 2.30931e-07 -9.67194e-06)
(-1.39031e-09 2.30885e-07 -9.67197e-06)
(-1.8177e-09 2.31237e-07 -9.67195e-06)
(-2.39136e-09 2.3175e-07 -9.67192e-06)
(-6.13002e-09 2.31008e-07 -9.67103e-06)
(-3.30373e-08 2.29505e-07 -9.6698e-06)
(-2.17944e-07 2.17647e-07 -9.74412e-06)
(-1.51145e-06 1.855e-07 -1.03504e-05)
(-1.31681e-05 1.90181e-07 -6.22533e-06)
(1.31926e-05 1.16551e-07 -6.21836e-06)
(1.5175e-06 1.13622e-07 -1.03507e-05)
(2.20755e-07 1.34223e-07 -9.74299e-06)
(3.34518e-08 1.41659e-07 -9.6677e-06)
(6.07008e-09 1.42753e-07 -9.67026e-06)
(2.66347e-09 1.42773e-07 -9.67076e-06)
(1.77624e-09 1.43001e-07 -9.67076e-06)
(1.36946e-09 1.42769e-07 -9.67079e-06)
(1.09254e-09 1.42891e-07 -9.67078e-06)
(8.83464e-10 1.43059e-07 -9.67067e-06)
(5.29162e-10 1.42714e-07 -9.67071e-06)
(4.61498e-10 1.42482e-07 -9.67088e-06)
(4.24258e-10 1.43238e-07 -9.67058e-06)
(5.45841e-12 1.42937e-07 -9.67063e-06)
(9.39703e-12 1.43294e-07 -9.67112e-06)
(8.83591e-11 1.43038e-07 -9.67057e-06)
(-4.01356e-10 1.43008e-07 -9.67056e-06)
(-4.26563e-10 1.42922e-07 -9.67118e-06)
(-3.59114e-10 1.43918e-07 -9.67109e-06)
(-7.49549e-10 1.43627e-07 -9.67114e-06)
(-7.35842e-10 1.4349e-07 -9.67124e-06)
(-8.36174e-10 1.42597e-07 -9.67089e-06)
(-1.35705e-09 1.4291e-07 -9.67073e-06)
(-1.76453e-09 1.43025e-07 -9.67069e-06)
(-2.42261e-09 1.43307e-07 -9.67057e-06)
(-6.38415e-09 1.42598e-07 -9.66985e-06)
(-3.38336e-08 1.41542e-07 -9.66858e-06)
(-2.20544e-07 1.33334e-07 -9.74299e-06)
(-1.51727e-06 1.13521e-07 -1.03507e-05)
(-1.31931e-05 1.16793e-07 -6.21796e-06)
(1.32072e-05 6.94905e-08 -6.21407e-06)
(1.52081e-06 6.69067e-08 -1.03509e-05)
(2.2248e-07 7.94072e-08 -9.7423e-06)
(3.40569e-08 8.41517e-08 -9.66683e-06)
(6.12736e-09 8.52153e-08 -9.66935e-06)
(2.59257e-09 8.45367e-08 -9.67018e-06)
(1.78487e-09 8.49234e-08 -9.66999e-06)
(1.35211e-09 8.48332e-08 -9.67003e-06)
(1.09469e-09 8.49315e-08 -9.67001e-06)
(8.49801e-10 8.49911e-08 -9.66981e-06)
(4.31187e-10 8.45426e-08 -9.67014e-06)
(5.14257e-10 8.51232e-08 -9.67032e-06)
(5.18945e-10 8.51328e-08 -9.66979e-06)
(-2.68327e-11 8.49592e-08 -9.66987e-06)
(1.44972e-11 8.44181e-08 -9.67034e-06)
(1.18509e-10 8.48922e-08 -9.66968e-06)
(-2.9616e-10 8.50097e-08 -9.66966e-06)
(-3.79439e-10 8.58149e-08 -9.67014e-06)
(-4.45483e-10 8.55461e-08 -9.6699e-06)
(-6.62062e-10 8.4712e-08 -9.67031e-06)
(-7.90974e-10 8.61521e-08 -9.67002e-06)
(-9.66042e-10 8.40964e-08 -9.67008e-06)
(-1.3097e-09 8.49815e-08 -9.66988e-06)
(-1.73945e-09 8.49041e-08 -9.66994e-06)
(-2.47882e-09 8.5105e-08 -9.66979e-06)
(-6.48212e-09 8.40829e-08 -9.669e-06)
(-3.44156e-08 8.52273e-08 -9.66755e-06)
(-2.22343e-07 7.93888e-08 -9.74263e-06)
(-1.52056e-06 6.67984e-08 -1.03508e-05)
(-1.32073e-05 6.89914e-08 -6.21364e-06)
(1.32152e-05 3.56527e-08 -6.21163e-06)
(1.52272e-06 3.49889e-08 -1.0351e-05)
(2.23513e-07 4.16989e-08 -9.74192e-06)
(3.43666e-08 4.42391e-08 -9.66627e-06)
(6.09373e-09 4.38436e-08 -9.66922e-06)
(2.63866e-09 4.38771e-08 -9.66971e-06)
(1.83415e-09 4.47007e-08 -9.66956e-06)
(1.34601e-09 4.46911e-08 -9.6696e-06)
(1.07496e-09 4.4759e-08 -9.66958e-06)
(7.82388e-10 4.46963e-08 -9.66951e-06)
(5.62311e-10 4.39332e-08 -9.66968e-06)
(5.86519e-10 4.56184e-08 -9.66961e-06)
(4.0691e-10 4.49029e-08 -9.66931e-06)
(-1.5029e-10 4.4791e-08 -9.66944e-06)
(-1.66063e-11 4.47518e-08 -9.67012e-06)
(2.23248e-10 4.44979e-08 -9.66948e-06)
(-2.09726e-10 4.47714e-08 -9.66932e-06)
(-3.26329e-10 4.5171e-08 -9.66973e-06)
(-5.69535e-10 4.50457e-08 -9.66925e-06)
(-6.23568e-10 4.50661e-08 -9.67e-06)
(-8.31106e-10 4.53446e-08 -9.66949e-06)
(-1.03323e-09 4.46149e-08 -9.67005e-06)
(-1.20801e-09 4.47586e-08 -9.66933e-06)
(-1.73078e-09 4.45742e-08 -9.6696e-06)
(-2.59299e-09 4.48263e-08 -9.66936e-06)
(-6.40092e-09 4.46104e-08 -9.66891e-06)
(-3.44685e-08 4.55701e-08 -9.66678e-06)
(-2.23537e-07 4.25593e-08 -9.74203e-06)
(-1.52254e-06 3.47672e-08 -1.0351e-05)
(-1.32153e-05 3.6218e-08 -6.21127e-06)
(1.32187e-05 1.13905e-08 -6.21055e-06)
(1.52371e-06 1.08476e-08 -1.0351e-05)
(2.23972e-07 1.29426e-08 -9.74177e-06)
(3.43424e-08 1.36306e-08 -9.6662e-06)
(6.02719e-09 1.32342e-08 -9.66916e-06)
(2.79146e-09 1.38922e-08 -9.66984e-06)
(1.95028e-09 1.38752e-08 -9.66938e-06)
(1.3473e-09 1.38961e-08 -9.66941e-06)
(1.06175e-09 1.39301e-08 -9.66939e-06)
(6.58573e-10 1.39059e-08 -9.6694e-06)
(6.15063e-10 1.39194e-08 -9.66981e-06)
(7.11073e-10 1.41813e-08 -9.66954e-06)
(3.68835e-10 1.38929e-08 -9.66902e-06)
(-7.01273e-11 1.39714e-08 -9.66925e-06)
(-5.70142e-11 1.44614e-08 -9.66977e-06)
(1.34591e-10 1.35021e-08 -9.66959e-06)
(-1.48861e-10 1.38953e-08 -9.66908e-06)
(-3.11702e-10 1.40445e-08 -9.66933e-06)
(-4.66805e-10 1.40126e-08 -9.66917e-06)
(-6.06215e-10 1.49073e-08 -9.66944e-06)
(-8.6222e-10 1.41492e-08 -9.66924e-06)
(-1.06106e-09 1.43949e-08 -9.66977e-06)
(-1.29994e-09 1.38748e-08 -9.66927e-06)
(-1.70835e-09 1.35251e-08 -9.6696e-06)
(-2.48537e-09 1.39383e-08 -9.66915e-06)
(-6.37359e-09 1.43988e-08 -9.66855e-06)
(-3.46422e-08 1.41646e-08 -9.66651e-06)
(-2.24154e-07 1.33921e-08 -9.74191e-06)
(-1.52343e-06 1.03193e-08 -1.03513e-05)
(-1.32188e-05 1.12455e-08 -6.21026e-06)
(1.32189e-05 -1.03622e-08 -6.21036e-06)
(1.52353e-06 -1.08965e-08 -1.0351e-05)
(2.23951e-07 -1.30517e-08 -9.74175e-06)
(3.43631e-08 -1.39817e-08 -9.66627e-06)
(6.16963e-09 -1.31145e-08 -9.66908e-06)
(2.76643e-09 -1.31429e-08 -9.66954e-06)
(1.83958e-09 -1.40353e-08 -9.66939e-06)
(1.35083e-09 -1.39979e-08 -9.6694e-06)
(1.06188e-09 -1.3979e-08 -9.66939e-06)
(7.61006e-10 -1.39655e-08 -9.66941e-06)
(6.02222e-10 -1.31843e-08 -9.66952e-06)
(5.76185e-10 -1.42214e-08 -9.66957e-06)
(3.76911e-10 -1.42605e-08 -9.66923e-06)
(-3.65366e-11 -1.39448e-08 -9.66925e-06)
(-1.12857e-10 -1.43313e-08 -9.66976e-06)
(1.08255e-10 -1.47833e-08 -9.66957e-06)
(-9.31104e-11 -1.40938e-08 -9.66921e-06)
(-2.75784e-10 -1.41232e-08 -9.66933e-06)
(-4.09426e-10 -1.39208e-08 -9.66918e-06)
(-6.08612e-10 -1.3533e-08 -9.66948e-06)
(-9.13365e-10 -1.39263e-08 -9.66924e-06)
(-1.07165e-09 -1.43891e-08 -9.66977e-06)
(-1.33996e-09 -1.40014e-08 -9.66933e-06)
(-1.70399e-09 -1.48057e-08 -9.66957e-06)
(-2.42981e-09 -1.40414e-08 -9.66916e-06)
(-6.39119e-09 -1.44982e-08 -9.66843e-06)
(-3.46395e-08 -1.41465e-08 -9.6665e-06)
(-2.24349e-07 -1.2768e-08 -9.7417e-06)
(-1.52351e-06 -1.19861e-08 -1.03511e-05)
(-1.32185e-05 -1.12886e-08 -6.2103e-06)
(1.32155e-05 -3.61764e-08 -6.21177e-06)
(1.52261e-06 -3.50751e-08 -1.0351e-05)
(2.2346e-07 -4.18699e-08 -9.74192e-06)
(3.44319e-08 -4.47637e-08 -9.66653e-06)
(6.24291e-09 -4.38532e-08 -9.66896e-06)
(2.58155e-09 -4.43853e-08 -9.66976e-06)
(1.78026e-09 -4.48585e-08 -9.66959e-06)
(1.36054e-09 -4.48112e-08 -9.66958e-06)
(1.07927e-09 -4.47734e-08 -9.66959e-06)
(8.09913e-10 -4.47424e-08 -9.66955e-06)
(5.27329e-10 -4.4453e-08 -9.66976e-06)
(4.83303e-10 -4.56311e-08 -9.66968e-06)
(4.34725e-10 -4.53062e-08 -9.6697e-06)
(-6.85826e-11 -4.47326e-08 -9.66939e-06)
(-2.10248e-10 -4.45072e-08 -9.67004e-06)
(1.65581e-10 -4.46665e-08 -9.66996e-06)
(-2.36406e-11 -4.48913e-08 -9.66947e-06)
(-2.38674e-10 -4.52653e-08 -9.66973e-06)
(-3.61048e-10 -4.48426e-08 -9.66921e-06)
(-6.27908e-10 -4.46195e-08 -9.6695e-06)
(-1.01812e-09 -4.48763e-08 -9.66943e-06)
(-1.07159e-09 -4.45994e-08 -9.67006e-06)
(-1.35973e-09 -4.47663e-08 -9.66954e-06)
(-1.71629e-09 -4.47641e-08 -9.67006e-06)
(-2.42641e-09 -4.48604e-08 -9.66938e-06)
(-6.40101e-09 -4.48252e-08 -9.66889e-06)
(-3.44134e-08 -4.54772e-08 -9.66672e-06)
(-2.24124e-07 -4.15216e-08 -9.74172e-06)
(-1.52277e-06 -3.49986e-08 -1.03511e-05)
(-1.32144e-05 -3.6228e-08 -6.21136e-06)
(1.32074e-05 -6.98098e-08 -6.21386e-06)
(1.52075e-06 -6.69691e-08 -1.03509e-05)
(2.22383e-07 -7.96871e-08 -9.7424e-06)
(3.41477e-08 -8.50955e-08 -9.66708e-06)
(6.28251e-09 -8.52791e-08 -9.66919e-06)
(2.5403e-09 -8.48012e-08 -9.67e-06)
(1.75413e-09 -8.50207e-08 -9.67005e-06)
(1.37316e-09 -8.49622e-08 -9.67003e-06)
(1.11918e-09 -8.49133e-08 -9.67002e-06)
(8.35125e-10 -8.49474e-08 -9.66978e-06)
(3.67762e-10 -8.48286e-08 -9.67e-06)
(3.90498e-10 -8.50629e-08 -9.6704e-06)
(5.64442e-10 -8.58868e-08 -9.67013e-06)
(1.36118e-10 -8.49791e-08 -9.66969e-06)
(-7.25807e-11 -8.39419e-08 -9.67006e-06)
(1.74108e-11 -8.40415e-08 -9.66982e-06)
(-2.31057e-10 -8.50841e-08 -9.66989e-06)
(-2.29517e-10 -8.59195e-08 -9.67015e-06)
(-2.88197e-10 -8.52024e-08 -9.66964e-06)
(-6.32004e-10 -8.49242e-08 -9.66987e-06)
(-9.02722e-10 -8.52241e-08 -9.66986e-06)
(-1.05171e-09 -8.40826e-08 -9.67007e-06)
(-1.36785e-09 -8.48927e-08 -9.66996e-06)
(-1.72425e-09 -8.40784e-08 -9.67016e-06)
(-2.43742e-09 -8.50066e-08 -9.66985e-06)
(-6.45955e-09 -8.42505e-08 -9.66903e-06)
(-3.42402e-08 -8.51648e-08 -9.66731e-06)
(-2.22736e-07 -7.92955e-08 -9.74187e-06)
(-1.52088e-06 -6.577e-08 -1.03509e-05)
(-1.32067e-05 -6.89752e-08 -6.21369e-06)
(1.31926e-05 -1.16738e-07 -6.21826e-06)
(1.51745e-06 -1.13615e-07 -1.03508e-05)
(2.20571e-07 -1.34673e-07 -9.74332e-06)
(3.35789e-08 -1.41742e-07 -9.66819e-06)
(6.2964e-09 -1.42717e-07 -9.67019e-06)
(2.62871e-09 -1.42913e-07 -9.67069e-06)
(1.75707e-09 -1.42977e-07 -9.67084e-06)
(1.38927e-09 -1.42875e-07 -9.67082e-06)
(1.15365e-09 -1.42841e-07 -9.67077e-06)
(8.41475e-10 -1.42985e-07 -9.67042e-06)
(4.26254e-10 -1.429e-07 -9.67069e-06)
(2.57537e-10 -1.42272e-07 -9.67086e-06)
(4.53751e-10 -1.42974e-07 -9.67115e-06)
(3.15222e-10 -1.42994e-07 -9.67057e-06)
(9.36447e-12 -1.42423e-07 -9.6709e-06)
(-5.75222e-11 -1.42617e-07 -9.6706e-06)
(-4.09678e-10 -1.43128e-07 -9.67068e-06)
(-2.42679e-10 -1.43019e-07 -9.6712e-06)
(-1.60994e-10 -1.43189e-07 -9.67062e-06)
(-6.27412e-10 -1.42952e-07 -9.67065e-06)
(-8.5367e-10 -1.435e-07 -9.67075e-06)
(-1.01757e-09 -1.42627e-07 -9.67085e-06)
(-1.36563e-09 -1.42851e-07 -9.67072e-06)
(-1.73802e-09 -1.42454e-07 -9.67098e-06)
(-2.45562e-09 -1.42991e-07 -9.67063e-06)
(-6.37793e-09 -1.42711e-07 -9.66992e-06)
(-3.3737e-08 -1.41414e-07 -9.6684e-06)
(-2.20754e-07 -1.34126e-07 -9.7427e-06)
(-1.51742e-06 -1.13004e-07 -1.0351e-05)
(-1.31929e-05 -1.16779e-07 -6.21795e-06)
(1.31675e-05 -1.89049e-07 -6.22539e-06)
(1.51137e-06 -1.85561e-07 -1.03503e-05)
(2.18064e-07 -2.18839e-07 -9.7443e-06)
(3.29897e-08 -2.2839e-07 -9.66913e-06)
(6.03504e-09 -2.29947e-07 -9.67112e-06)
(2.51512e-09 -2.31064e-07 -9.67189e-06)
(1.78298e-09 -2.30978e-07 -9.67208e-06)
(1.40908e-09 -2.30811e-07 -9.67205e-06)
(1.17856e-09 -2.30795e-07 -9.67197e-06)
(8.30956e-10 -2.3099e-07 -9.67156e-06)
(4.24281e-10 -2.31002e-07 -9.67189e-06)
(3.52774e-10 -2.30846e-07 -9.67216e-06)
(4.08489e-10 -2.30171e-07 -9.67204e-06)
(2.38557e-10 -2.3095e-07 -9.67186e-06)
(2.94839e-11 -2.3066e-07 -9.67197e-06)
(-1.01218e-10 -2.30854e-07 -9.67186e-06)
(-3.0219e-10 -2.31293e-07 -9.67201e-06)
(-2.38658e-10 -2.30136e-07 -9.67211e-06)
(-2.6206e-10 -2.31095e-07 -9.67196e-06)
(-6.59433e-10 -2.30974e-07 -9.67188e-06)
(-8.4458e-10 -2.32042e-07 -9.67232e-06)
(-9.59476e-10 -2.31035e-07 -9.67188e-06)
(-1.34943e-09 -2.3084e-07 -9.67194e-06)
(-1.75861e-09 -2.30617e-07 -9.67202e-06)
(-2.48296e-09 -2.31056e-07 -9.67183e-06)
(-6.13742e-09 -2.3107e-07 -9.67109e-06)
(-3.29668e-08 -2.28973e-07 -9.66935e-06)
(-2.18066e-07 -2.1781e-07 -9.74385e-06)
(-1.51155e-06 -1.85222e-07 -1.03505e-05)
(-1.3168e-05 -1.90192e-07 -6.2253e-06)
(1.31242e-05 -3.04348e-07 -6.23763e-06)
(1.50145e-06 -2.99606e-07 -1.0349e-05)
(2.14253e-07 -3.4897e-07 -9.74582e-06)
(3.21059e-08 -3.6503e-07 -9.67095e-06)
(5.80822e-09 -3.67223e-07 -9.67296e-06)
(2.48156e-09 -3.68039e-07 -9.67364e-06)
(1.83533e-09 -3.67668e-07 -9.6738e-06)
(1.42798e-09 -3.67467e-07 -9.67375e-06)
(1.19126e-09 -3.6748e-07 -9.67364e-06)
(8.05639e-10 -3.67674e-07 -9.67319e-06)
(3.94846e-10 -3.67867e-07 -9.67362e-06)
(3.88565e-10 -3.68018e-07 -9.67376e-06)
(3.96261e-10 -3.67444e-07 -9.67384e-06)
(2.17195e-10 -3.67691e-07 -9.67359e-06)
(4.12806e-11 -3.67456e-07 -9.67364e-06)
(-1.47642e-10 -3.67571e-07 -9.67364e-06)
(-2.43217e-10 -3.68361e-07 -9.67398e-06)
(-2.04914e-10 -3.67276e-07 -9.67391e-06)
(-3.06437e-10 -3.6774e-07 -9.67373e-06)
(-7.48629e-10 -3.67702e-07 -9.67358e-06)
(-8.6808e-10 -3.69688e-07 -9.67424e-06)
(-8.56712e-10 -3.68169e-07 -9.67356e-06)
(-1.31392e-09 -3.67531e-07 -9.67366e-06)
(-1.7909e-09 -3.67387e-07 -9.67365e-06)
(-2.52777e-09 -3.6794e-07 -9.67356e-06)
(-6.0031e-09 -3.68219e-07 -9.67302e-06)
(-3.19376e-08 -3.65148e-07 -9.67108e-06)
(-2.14065e-07 -3.48838e-07 -9.74527e-06)
(-1.50177e-06 -2.99205e-07 -1.03494e-05)
(-1.31246e-05 -3.0515e-07 -6.2374e-06)
(1.30499e-05 -4.85852e-07 -6.25684e-06)
(1.48575e-06 -4.82164e-07 -1.03468e-05)
(2.08737e-07 -5.5527e-07 -9.74693e-06)
(3.05977e-08 -5.79367e-07 -9.67283e-06)
(5.56354e-09 -5.8222e-07 -9.67487e-06)
(2.50069e-09 -5.83093e-07 -9.67586e-06)
(1.9226e-09 -5.82195e-07 -9.67576e-06)
(1.43299e-09 -5.82034e-07 -9.67578e-06)
(1.18298e-09 -5.82114e-07 -9.67566e-06)
(7.63059e-10 -5.82274e-07 -9.6753e-06)
(3.59559e-10 -5.82744e-07 -9.67586e-06)
(4.06921e-10 -5.83156e-07 -9.67599e-06)
(3.95252e-10 -5.8244e-07 -9.67578e-06)
(2.22626e-10 -5.82428e-07 -9.67564e-06)
(6.89753e-11 -5.82084e-07 -9.6757e-06)
(-2.2187e-10 -5.82129e-07 -9.67571e-06)
(-2.12793e-10 -5.83581e-07 -9.67595e-06)
(-1.22432e-10 -5.82081e-07 -9.6758e-06)
(-3.29533e-10 -5.82287e-07 -9.67584e-06)
(-9.28974e-10 -5.82317e-07 -9.67563e-06)
(-9.15001e-10 -5.84081e-07 -9.6764e-06)
(-6.76881e-10 -5.83318e-07 -9.67583e-06)
(-1.26125e-09 -5.82109e-07 -9.67573e-06)
(-1.84303e-09 -5.8201e-07 -9.67568e-06)
(-2.59636e-09 -5.82902e-07 -9.67576e-06)
(-5.69241e-09 -5.8347e-07 -9.67498e-06)
(-3.04528e-08 -5.78976e-07 -9.67303e-06)
(-2.08604e-07 -5.56032e-07 -9.74682e-06)
(-1.48599e-06 -4.81672e-07 -1.03469e-05)
(-1.30501e-05 -4.86666e-07 -6.25699e-06)
(1.29254e-05 -7.73084e-07 -6.28833e-06)
(1.46133e-06 -7.76265e-07 -1.03425e-05)
(2.01126e-07 -8.84896e-07 -9.74893e-06)
(2.87061e-08 -9.17584e-07 -9.67571e-06)
(5.28628e-09 -9.21049e-07 -9.6777e-06)
(2.56625e-09 -9.22294e-07 -9.67914e-06)
(2.04677e-09 -9.20655e-07 -9.67844e-06)
(1.42314e-09 -9.20443e-07 -9.67862e-06)
(1.14583e-09 -9.20652e-07 -9.67858e-06)
(6.97569e-10 -9.20583e-07 -9.67849e-06)
(3.34639e-10 -9.21618e-07 -9.6791e-06)
(4.22195e-10 -9.22336e-07 -9.67937e-06)
(3.86074e-10 -9.2131e-07 -9.67878e-06)
(2.42421e-10 -9.21108e-07 -9.67855e-06)
(1.22018e-10 -9.20538e-07 -9.67856e-06)
(-3.47512e-10 -9.20492e-07 -9.67855e-06)
(-1.97744e-10 -9.21156e-07 -9.6789e-06)
(3.91877e-11 -9.20584e-07 -9.67862e-06)
(-3.39274e-10 -9.20627e-07 -9.67872e-06)
(-9.52683e-10 -9.20745e-07 -9.67849e-06)
(-9.72409e-10 -9.20936e-07 -9.67917e-06)
(-6.71934e-10 -9.22588e-07 -9.67928e-06)
(-1.19908e-09 -9.20507e-07 -9.67859e-06)
(-1.91892e-09 -9.20448e-07 -9.67855e-06)
(-2.71685e-09 -9.21946e-07 -9.67904e-06)
(-5.45526e-09 -9.21061e-07 -9.67785e-06)
(-2.85171e-08 -9.17925e-07 -9.67595e-06)
(-2.00952e-07 -8.84963e-07 -9.74889e-06)
(-1.46154e-06 -7.75768e-07 -1.03424e-05)
(-1.29251e-05 -7.74197e-07 -6.2889e-06)
(1.27243e-05 -1.2283e-06 -6.3438e-06)
(1.42561e-06 -1.25135e-06 -1.03402e-05)
(1.90834e-07 -1.40763e-06 -9.75732e-06)
(2.634e-08 -1.45185e-06 -9.68532e-06)
(4.97344e-09 -1.45582e-06 -9.68709e-06)
(2.64524e-09 -1.45778e-06 -9.68863e-06)
(2.18989e-09 -1.45487e-06 -9.68801e-06)
(1.4504e-09 -1.45473e-06 -9.68801e-06)
(1.12184e-09 -1.45518e-06 -9.68823e-06)
(5.95941e-10 -1.4546e-06 -9.68799e-06)
(2.78327e-10 -1.45651e-06 -9.68826e-06)
(4.42538e-10 -1.45769e-06 -9.68873e-06)
(3.66827e-10 -1.45623e-06 -9.68853e-06)
(2.66518e-10 -1.4558e-06 -9.68807e-06)
(1.95529e-10 -1.4549e-06 -9.68789e-06)
(-2.39867e-10 -1.45476e-06 -9.68788e-06)
(-1.77028e-10 -1.45481e-06 -9.68815e-06)
(1.30168e-11 -1.45486e-06 -9.68797e-06)
(-3.40394e-10 -1.45471e-06 -9.68784e-06)
(-8.40251e-10 -1.45506e-06 -9.68789e-06)
(-1.0452e-09 -1.45548e-06 -9.68875e-06)
(-8.39287e-10 -1.45823e-06 -9.68891e-06)
(-1.12462e-09 -1.45475e-06 -9.68792e-06)
(-2.01304e-09 -1.45474e-06 -9.68793e-06)
(-2.63926e-09 -1.45718e-06 -9.68849e-06)
(-5.24335e-09 -1.45467e-06 -9.68675e-06)
(-2.62998e-08 -1.45072e-06 -9.68515e-06)
(-1.90618e-07 -1.40727e-06 -9.75703e-06)
(-1.42586e-06 -1.25078e-06 -1.03399e-05)
(-1.27234e-05 -1.22987e-06 -6.34394e-06)
(1.242e-05 -1.94911e-06 -6.45412e-06)
(1.37756e-06 -2.01607e-06 -1.03624e-05)
(1.77442e-07 -2.23438e-06 -9.79662e-06)
(2.33759e-08 -2.29375e-06 -9.72663e-06)
(4.63794e-09 -2.2979e-06 -9.72815e-06)
(2.7905e-09 -2.29871e-06 -9.73013e-06)
(2.40123e-09 -2.29599e-06 -9.72907e-06)
(1.49703e-09 -2.29621e-06 -9.7292e-06)
(1.11217e-09 -2.29712e-06 -9.72991e-06)
(3.91214e-10 -2.29567e-06 -9.72877e-06)
(1.25288e-10 -2.29643e-06 -9.72899e-06)
(4.94459e-10 -2.29835e-06 -9.72877e-06)
(3.94558e-10 -2.29849e-06 -9.72919e-06)
(2.95152e-10 -2.29793e-06 -9.72954e-06)
(2.67579e-10 -2.2965e-06 -9.72891e-06)
(-1.6048e-10 -2.29626e-06 -9.72888e-06)