/*--------------------------------*- C++ -*----------------------------------*\
| =========                 |                                                 |
| \\      /  F ield         | OpenFOAM: The Open Source CFD Toolbox           |
|  \\    /   O peration     | Version:  2106                                  |
|   \\  /    A nd           | Website:  www.openfoam.com                      |
|    \\/     M anipulation  |                                                 |
\*---------------------------------------------------------------------------*/
FoamFile
{
    version     2.0;
    format      ascii;
    arch        "LSB;label=32;scalar=64";
    class       volSymmTensorField;
    location    "817";
    object      epsilon;
}
// * * * * * * * * * * * * * * * * * * * * * * * * * * * * * * * * * * * * * //

dimensions      [0 0 0 0 0 0 0];

internalField   nonuniform List<symmTensor> 
9000
(
(-0.0855806 -0.000263495 0.0481619 -0.147116 0.0614068 -0.0253739)
(-0.0167732 0.000537827 0.00938373 -0.156475 0.0651284 -0.0697521)
(-0.00192932 0.000335754 0.00256559 -0.166385 0.0691563 -0.0595168)
(-0.000321084 5.06336e-05 0.000451484 -0.167997 0.0700451 -0.057395)
(-5.53372e-05 -7.94876e-06 3.96067e-05 -0.168079 0.0700716 -0.0574074)
(-3.87409e-06 -2.05841e-06 1.75257e-05 -0.167896 0.06986 -0.0576818)
(-1.30027e-06 -3.64751e-08 2.54308e-05 -0.168021 0.0700233 -0.0575672)
(6.10011e-08 -5.91688e-06 7.70784e-06 -0.167889 0.069861 -0.0576822)
(-9.16751e-07 6.45053e-06 3.12708e-05 -0.167887 0.0698577 -0.0576896)
(-6.55215e-06 6.62912e-06 -7.45085e-06 -0.168061 0.0700451 -0.0574713)
(2.42434e-06 -6.26545e-06 -4.90328e-05 -0.167943 0.0699279 -0.0575983)
(7.85685e-06 -5.39323e-07 3.97454e-05 -0.167761 0.0697374 -0.0578379)
(-4.59347e-06 5.45196e-06 5.89343e-05 -0.16805 0.0700332 -0.0574994)
(-4.35821e-06 8.2879e-07 -3.01846e-05 -0.168067 0.0700421 -0.057488)
(3.42388e-06 8.62837e-07 1.85648e-06 -0.167955 0.0699368 -0.0575822)
(-2.63362e-06 -1.18665e-06 3.04721e-05 -0.168063 0.0700469 -0.0574731)
(-2.17042e-06 3.38939e-07 -3.63246e-05 -0.168065 0.0700412 -0.0574929)
(3.02453e-09 7.56482e-07 -3.12972e-06 -0.167958 0.069939 -0.0575734)
(-2.16805e-06 -6.66466e-06 -2.48121e-05 -0.168052 0.0700386 -0.0574875)
(4.65404e-06 -6.3743e-06 -2.66622e-05 -0.167773 0.0697468 -0.0578019)
(2.7653e-06 5.82019e-06 3.97121e-05 -0.167874 0.069851 -0.0577149)
(-5.68265e-06 6.53845e-06 6.79994e-06 -0.16806 0.0700389 -0.0574856)
(-3.47548e-06 -5.87894e-06 -3.20006e-05 -0.168065 0.0700479 -0.0574677)
(1.15937e-07 -8.09932e-07 -2.64733e-05 -0.167901 0.0698654 -0.0576683)
(-7.74682e-06 1.65916e-06 -2.40973e-05 -0.168052 0.0700334 -0.0574945)
(-5.38731e-05 1.94042e-06 -9.30594e-05 -0.167912 0.0698907 -0.0576043)
(-0.000314519 -4.56873e-05 -0.000439833 -0.167867 0.0699202 -0.0575378)
(-0.00192992 -0.000335532 -0.00252787 -0.166381 0.0691447 -0.0595434)
(-0.016776 -0.000536882 -0.00938207 -0.156473 0.0651274 -0.0697536)
(-0.0855799 0.000263423 -0.0481629 -0.147115 0.0614024 -0.0253795)
(-0.0724034 -1.12601e-05 0.0464787 -0.0980714 0.0681823 -0.128991)
(-0.0163973 0.000682539 0.00802461 -0.103197 0.0717479 -0.175005)
(-0.00180222 0.000432682 0.00154226 -0.109234 0.076234 -0.17132)
(-0.000206429 7.09658e-05 0.000229314 -0.1104 0.0773919 -0.170637)
(-2.73468e-05 -6.32179e-06 3.21688e-05 -0.110423 0.0774249 -0.170683)
(-4.45735e-06 -3.26648e-06 3.1184e-05 -0.110202 0.0773581 -0.170699)
(-2.06446e-06 5.06512e-07 2.57462e-05 -0.11037 0.0773692 -0.17071)
(-1.46284e-06 -1.71439e-06 -2.70275e-06 -0.110179 0.0773627 -0.170696)
(-7.43154e-07 2.06286e-06 3.42097e-05 -0.11018 0.0773557 -0.170702)
(-1.19606e-06 7.22275e-06 3.3853e-05 -0.110394 0.0773821 -0.170707)
(-4.60258e-07 3.323e-06 -1.14371e-05 -0.110296 0.077557 -0.170677)
(8.08128e-08 -5.8854e-06 4.35794e-06 -0.110076 0.0775215 -0.170667)
(-1.08718e-06 -6.98687e-06 2.37776e-05 -0.110393 0.0773645 -0.17071)
(-7.99348e-07 6.30898e-06 1.80041e-06 -0.11037 0.0772293 -0.170691)
(1.1887e-07 3.75246e-06 -1.465e-06 -0.110309 0.0775704 -0.17068)
(-3.79451e-07 -9.01477e-06 -2.07208e-06 -0.110397 0.0773865 -0.170711)
(-2.43235e-07 5.16543e-06 -8.35339e-07 -0.110368 0.0772283 -0.170693)
(-1.7736e-07 3.80532e-06 -3.49044e-06 -0.110313 0.0775717 -0.170676)
(-7.63937e-07 -2.1496e-06 -2.46551e-05 -0.110384 0.0773724 -0.170711)
(-7.87738e-07 -1.92185e-06 -2.79422e-05 -0.110083 0.0775421 -0.170666)
(-7.86996e-07 -4.15517e-06 4.70753e-06 -0.110164 0.0773433 -0.170691)
(-9.36382e-07 1.9235e-06 4.97217e-06 -0.110405 0.0773721 -0.170713)
(-1.09674e-06 -1.08479e-06 -3.7586e-05 -0.110397 0.0773872 -0.170708)
(-1.5444e-06 -1.73873e-06 -2.28547e-05 -0.110196 0.0773657 -0.170693)
(-5.14667e-06 3.42128e-06 -2.8921e-05 -0.110398 0.0773623 -0.17071)
(-2.77082e-05 9.93007e-06 -5.06858e-05 -0.110214 0.077408 -0.170668)
(-0.000206188 -7.34615e-05 -0.00020895 -0.110289 0.077555 -0.170606)
(-0.00180235 -0.000437655 -0.00154422 -0.109198 0.0760739 -0.171319)
(-0.0163973 -0.0006792 -0.00802721 -0.103195 0.0717459 -0.175003)
(-0.0724022 1.12339e-05 -0.0464792 -0.098075 0.0681721 -0.128992)
(-0.0763046 0.00117273 0.0467454 -0.0575536 0.0581646 -0.153406)
(-0.0165232 0.000871457 0.0078644 -0.0602169 0.0606466 -0.201966)
(-0.00180447 0.00051953 0.00136761 -0.0633661 0.0647173 -0.199928)
(-0.00018659 9.82292e-05 0.000169049 -0.0641022 0.0658943 -0.199627)
(-1.85185e-05 -8.82178e-07 5.58863e-05 -0.0641042 0.0659375 -0.199687)
(-4.65519e-06 -5.15887e-06 3.46095e-05 -0.0639984 0.066047 -0.199648)
(-1.99118e-06 2.17993e-06 2.48717e-05 -0.0640744 0.0658763 -0.199696)
(-2.26697e-06 4.48062e-06 2.20039e-05 -0.0639919 0.0661444 -0.199667)
(-1.49357e-06 -2.861e-06 7.92623e-06 -0.0640003 0.0661371 -0.199671)
(1.18721e-06 -2.78084e-06 9.32701e-06 -0.0640766 0.0658973 -0.199701)
(-7.54333e-07 3.2192e-06 1.85311e-05 -0.064065 0.065872 -0.199687)
(-3.43437e-06 -2.6997e-06 4.77052e-06 -0.0639771 0.0661184 -0.199649)
(-3.44675e-07 -3.44177e-06 -1.99284e-05 -0.0640561 0.065787 -0.199657)
(1.36045e-06 3.84649e-06 5.91608e-07 -0.0640079 0.0659001 -0.199683)
(-9.4496e-07 5.22321e-07 1.20709e-05 -0.06407 0.0658881 -0.199691)
(-1.249e-07 -1.06594e-06 -1.70292e-05 -0.0640783 0.0659032 -0.199703)
(1.041e-06 4.62926e-07 1.66398e-07 -0.0640076 0.0658989 -0.199686)
(2.97429e-07 2.84672e-07 1.1525e-05 -0.0640721 0.0658876 -0.199691)
(-4.17401e-07 2.33445e-06 2.79042e-06 -0.0640704 0.0658874 -0.1997)
(-3.11364e-06 2.80418e-06 -9.24231e-07 -0.0639811 0.0661237 -0.199653)
(-2.72762e-06 -5.51849e-06 -2.14371e-05 -0.0639824 0.0661383 -0.199657)
(1.08705e-06 -2.54334e-06 -2.3347e-05 -0.0640674 0.0657963 -0.199683)
(1.36835e-07 5.10051e-06 -1.29408e-05 -0.0640769 0.0659044 -0.199703)
(-2.34932e-06 -3.97006e-06 -2.09432e-05 -0.0640111 0.0661442 -0.199667)
(-3.99761e-06 4.04396e-06 -2.97031e-05 -0.0640717 0.0657864 -0.199676)
(-2.02067e-05 4.63344e-06 -4.58574e-05 -0.064024 0.0661854 -0.19965)
(-0.000188772 -0.000102364 -0.000188509 -0.0640793 0.0658569 -0.199609)
(-0.00180353 -0.000519261 -0.00137445 -0.063293 0.0646977 -0.199916)
(-0.0165219 -0.000871993 -0.00785388 -0.0602148 0.0606447 -0.201963)
(-0.0763018 -0.00117252 -0.0467451 -0.0575628 0.0581518 -0.153407)
(-0.0818777 0.00181544 0.0483682 -0.0351663 0.0409084 -0.154295)
(-0.0170824 0.000880268 0.00813705 -0.0372327 0.0422664 -0.205378)
(-0.00186638 0.000494966 0.0014873 -0.0391077 0.0456082 -0.203493)
(-0.000206486 0.000100461 0.000189641 -0.0396307 0.0464867 -0.203202)
(-2.02922e-05 -7.64035e-07 4.10605e-05 -0.03964 0.0465331 -0.203268)
(-3.77759e-06 -6.75859e-06 3.51581e-05 -0.0395808 0.0464298 -0.203236)
(-2.11983e-06 1.26446e-06 3.33399e-05 -0.0396051 0.0464173 -0.203264)
(-2.12791e-06 1.53783e-06 1.89743e-05 -0.0396222 0.0465016 -0.203286)
(-1.07249e-06 4.95496e-07 1.24883e-05 -0.0396165 0.046428 -0.203249)
(7.46147e-07 3.31483e-07 1.17193e-05 -0.0396145 0.0465012 -0.20328)
(-1.27255e-06 -1.99058e-06 1.47626e-05 -0.0396095 0.0464877 -0.203277)
(-2.99945e-06 7.52343e-07 -4.50828e-06 -0.039614 0.0464789 -0.203254)
(2.25285e-07 5.94636e-06 -3.5494e-06 -0.0395688 0.0465019 -0.20326)
(9.07314e-07 1.03551e-06 1.04538e-05 -0.0395899 0.0466667 -0.203286)
(-1.09131e-06 -3.47656e-06 -7.45443e-07 -0.0396073 0.0465019 -0.203279)
(5.10253e-08 4.10109e-06 -3.82782e-06 -0.0396158 0.0465075 -0.203284)
(8.43034e-07 -6.06648e-07 -2.52871e-07 -0.0395907 0.0466654 -0.203289)
(8.41748e-09 -4.23229e-06 -3.05772e-07 -0.0396076 0.0465016 -0.20328)
(-6.87452e-07 -1.56591e-06 -1.46785e-06 -0.0396114 0.0464921 -0.203258)
(-2.76151e-06 -7.49021e-07 -5.74462e-06 -0.0396158 0.0464899 -0.20328)
(-2.22367e-06 1.12074e-06 -2.63112e-05 -0.0396177 0.0464914 -0.203261)
(9.47914e-07 1.58034e-06 -1.97962e-05 -0.0395797 0.0464961 -0.203252)
(-3.13581e-07 -1.2557e-06 -6.81567e-06 -0.0396121 0.0465101 -0.203284)
(-2.22945e-06 -3.83762e-06 -3.03281e-05 -0.0396215 0.0464323 -0.20327)
(-3.11845e-06 4.86008e-06 -3.01684e-05 -0.0395743 0.04642 -0.203228)
(-2.15081e-05 1.91925e-07 -3.46798e-05 -0.0396476 0.0465318 -0.203264)
(-0.000208597 -9.77001e-05 -0.000191268 -0.0396171 0.0464611 -0.203192)
(-0.00186624 -0.000492522 -0.00149487 -0.0390838 0.0457505 -0.203466)
(-0.0170804 -0.000885619 -0.00814071 -0.0372312 0.0422649 -0.205375)
(-0.0818819 -0.00181475 -0.0483662 -0.0351568 0.0408316 -0.154281)
(-0.0860582 0.00177845 0.0503686 -0.0220578 0.0263836 -0.152289)
(-0.0177671 0.000770762 0.0085509 -0.023578 0.0267735 -0.205729)
(-0.00194989 0.000412501 0.00165856 -0.0249318 0.0293915 -0.203766)
(-0.000234355 8.632e-05 0.000210053 -0.0252869 0.0299606 -0.203434)
(-2.56138e-05 5.39417e-06 4.01267e-05 -0.025288 0.0299507 -0.203495)
(-3.46127e-06 -4.73181e-06 2.37343e-05 -0.0252438 0.030095 -0.203526)
(-1.75115e-06 -2.83981e-06 3.22096e-05 -0.0252444 0.029918 -0.203504)
(-1.87928e-06 2.23077e-06 1.78306e-05 -0.025282 0.0299927 -0.203529)
(-5.79884e-07 -1.6121e-07 1.37258e-05 -0.0252557 0.029994 -0.203517)
(5.92201e-08 -2.20881e-06 2.1176e-05 -0.0252848 0.0299823 -0.203503)
(-1.46606e-06 -2.07248e-06 1.23422e-05 -0.0252666 0.0299215 -0.203507)
(-2.21018e-06 3.96793e-06 3.68375e-06 -0.0252823 0.0299825 -0.203512)
(5.3632e-08 4.92099e-06 -2.5795e-06 -0.0252721 0.0300801 -0.203531)
(5.94633e-07 -1.21462e-06 2.28859e-06 -0.0252993 0.030008 -0.203527)
(-1.01124e-06 -2.14137e-06 7.87259e-07 -0.0252769 0.0299859 -0.203521)
(-9.61952e-08 2.54281e-06 -4.53903e-06 -0.0252873 0.0299873 -0.203522)
(7.98411e-07 -3.30837e-07 -8.95101e-07 -0.0252999 0.0300068 -0.203529)
(-2.61689e-07 -3.4484e-06 9.98884e-07 -0.0252765 0.0299856 -0.203522)
(-1.01318e-06 -1.71832e-06 -3.42184e-06 -0.0252843 0.0299807 -0.203493)
(-1.90784e-06 -1.03881e-07 -7.6731e-06 -0.0252812 0.0299851 -0.203524)
(-1.52841e-06 2.74777e-06 -1.46384e-05 -0.0252817 0.0299907 -0.203519)
(-2.90573e-08 1.88273e-06 -1.74417e-05 -0.0252599 0.030031 -0.203519)
(-9.3896e-07 -1.14598e-06 -2.52509e-05 -0.0252785 0.0299907 -0.203525)
(-1.4018e-06 -9.94897e-07 -3.0281e-05 -0.0252632 0.0299899 -0.203518)
(-2.79453e-06 2.49372e-06 -2.00817e-05 -0.0252399 0.0300226 -0.203506)
(-2.65662e-05 -4.80153e-06 -3.52673e-05 -0.0253027 0.03001 -0.203503)
(-0.000235959 -8.64356e-05 -0.000212017 -0.0252853 0.0299427 -0.203423)
(-0.00194998 -0.000409624 -0.00166312 -0.0249488 0.0294053 -0.203761)
(-0.0177641 -0.000771881 -0.00856344 -0.0235773 0.0267719 -0.205727)
(-0.0860651 -0.00177648 -0.0503561 -0.0220259 0.0263738 -0.152279)
(-0.0887427 0.00139832 0.052117 -0.0139502 0.0164666 -0.151262)
(-0.018364 0.000609193 0.00895212 -0.0148824 0.0163779 -0.206543)
(-0.00203139 0.000319908 0.00181114 -0.0159393 0.0181855 -0.20448)
(-0.000259139 7.37332e-05 0.000232907 -0.0161925 0.0187143 -0.204176)
(-3.09916e-05 7.87945e-06 4.79536e-05 -0.0161812 0.0187551 -0.204246)
(-3.96608e-06 -2.50452e-06 2.98141e-05 -0.0161987 0.0188345 -0.204285)
(-1.39249e-06 -3.8629e-06 2.46726e-05 -0.0161535 0.0187604 -0.204265)
(-1.66633e-06 1.52847e-06 2.47556e-05 -0.0161935 0.0187482 -0.204273)
(-1.00852e-06 -1.67503e-06 1.36562e-05 -0.016186 0.0188191 -0.204284)
(-2.21375e-07 -2.87367e-06 5.47198e-06 -0.016186 0.0186965 -0.204259)
(-9.92988e-07 -1.6437e-06 1.10943e-05 -0.0161652 0.0187367 -0.204263)
(-1.56196e-06 1.33006e-07 1.0995e-05 -0.0161877 0.0186942 -0.204236)
(1.19701e-08 4.8394e-06 -5.95197e-07 -0.0162055 0.0187054 -0.204261)
(2.05134e-07 8.57732e-07 3.48619e-06 -0.0162058 0.0187608 -0.204271)
(-1.04126e-06 -2.54415e-06 9.43098e-07 -0.0161923 0.0187429 -0.204267)
(-1.36001e-07 1.85831e-06 -3.74784e-06 -0.0161898 0.0186964 -0.204257)
(4.88563e-07 8.13179e-07 -1.56421e-06 -0.0162058 0.0187592 -0.204273)
(-4.53034e-07 -4.25593e-06 -4.57639e-07 -0.0161917 0.0187436 -0.204269)
(-8.57544e-07 -1.48805e-06 -4.55549e-06 -0.0161893 0.0186943 -0.204237)
(-1.57944e-06 1.34243e-06 -7.70933e-06 -0.0161983 0.0187421 -0.204268)
(-1.19886e-06 2.96273e-06 -2.18738e-05 -0.0162013 0.0187451 -0.204248)
(1.39907e-07 1.88854e-06 -1.62285e-05 -0.0161824 0.0187549 -0.204271)
(-1.40607e-06 -4.07479e-07 -8.2803e-06 -0.0161923 0.0187468 -0.204273)
(-1.66121e-06 6.74818e-07 -3.14874e-05 -0.0161834 0.0187723 -0.204252)
(-2.82563e-06 4.27321e-07 -2.76964e-05 -0.0161746 0.0187744 -0.204266)
(-3.19121e-05 -8.27001e-06 -3.56243e-05 -0.0162119 0.0187567 -0.204246)
(-0.000260526 -7.23794e-05 -0.000244123 -0.0161881 0.0186554 -0.204135)
(-0.00203099 -0.000316623 -0.00181338 -0.0159478 0.0181944 -0.204496)
(-0.0183608 -0.000607741 -0.00895466 -0.0148822 0.0163765 -0.20654)
(-0.0887418 -0.00139737 -0.0521036 -0.0139377 0.0165321 -0.151266)
(-0.0903999 0.000964935 0.0534012 -0.00882054 0.0102387 -0.150983)
(-0.0188003 0.000448261 0.00928291 -0.00929853 0.00999142 -0.207535)
(-0.00209828 0.000237873 0.00192601 -0.0101 0.0113135 -0.20547)
(-0.000278722 5.83035e-05 0.00027383 -0.0103125 0.011668 -0.205148)
(-3.63107e-05 6.79584e-06 5.08325e-05 -0.01032 0.0117618 -0.205217)
(-4.5266e-06 -9.99684e-07 2.07404e-05 -0.0103372 0.0117192 -0.205249)
(-1.01795e-06 -2.69691e-06 2.44604e-05 -0.0103011 0.0117584 -0.205235)
(-1.72005e-06 -1.38703e-06 2.43248e-05 -0.0103185 0.0116985 -0.205248)
(-9.63251e-07 -2.57592e-07 5.86225e-06 -0.0103281 0.0117068 -0.20525)
(-2.75807e-07 -2.02991e-07 1.25256e-05 -0.0102966 0.0116963 -0.205245)
(-1.35565e-06 -1.7732e-06 9.6532e-06 -0.0103066 0.0117502 -0.205253)
(-7.8504e-07 -1.75623e-06 -3.20347e-06 -0.0103018 0.011694 -0.205236)
(5.98241e-07 2.88416e-06 9.09696e-06 -0.0103026 0.0116621 -0.205231)
(-5.20199e-07 5.24859e-07 1.07456e-05 -0.0103253 0.0117066 -0.205244)
(-1.17664e-06 -9.02493e-07 -6.71173e-06 -0.0103181 0.0116949 -0.205243)
(1.81456e-07 1.44246e-06 -2.79398e-06 -0.0102996 0.0116955 -0.205239)
(-9.85843e-08 -3.87724e-07 5.49278e-06 -0.0103252 0.0117051 -0.205245)
(-7.42723e-07 -2.70578e-06 -1.00207e-05 -0.0103175 0.0116957 -0.205244)
(-2.46292e-07 -1.93466e-06 -5.049e-06 -0.0103035 0.0116934 -0.205241)
(-1.03471e-06 -8.69152e-07 2.64284e-07 -0.010314 0.011652 -0.205234)
(-1.06139e-06 4.8133e-06 -1.35772e-05 -0.0103209 0.0116576 -0.205217)
(-5.56755e-07 2.99671e-06 -1.49251e-05 -0.0103185 0.0117641 -0.205258)
(-1.7554e-06 -1.31899e-06 -2.37232e-05 -0.0103177 0.0116988 -0.205249)
(-1.12194e-06 2.0253e-06 -3.13924e-05 -0.0103102 0.0117079 -0.205242)
(-3.41675e-06 -1.36384e-06 -1.90978e-05 -0.0103056 0.0117272 -0.205241)
(-3.67588e-05 -8.80442e-06 -4.58505e-05 -0.0103222 0.0116604 -0.20521)
(-0.000279537 -5.41411e-05 -0.000276426 -0.0103006 0.0116593 -0.205114)
(-0.00209817 -0.000235762 -0.00192198 -0.0101054 0.011317 -0.205465)
(-0.0187983 -0.000447799 -0.00928571 -0.00929967 0.00998932 -0.207529)
(-0.0903952 -0.000966235 -0.0533956 -0.00882743 0.0102505 -0.150987)
(-0.0914187 0.000613083 0.0542506 -0.00556868 0.00639936 -0.150958)
(-0.0190866 0.00031125 0.00954567 -0.00576947 0.00614852 -0.208326)
(-0.00214851 0.000172286 0.00201379 -0.00637943 0.00711488 -0.206271)
(-0.000293537 4.1739e-05 0.00028594 -0.00653794 0.00732581 -0.205942)
(-3.97715e-05 5.45442e-06 5.31188e-05 -0.00655948 0.00736363 -0.206008)
(-5.11227e-06 1.07055e-06 2.68251e-05 -0.00655815 0.007366 -0.206042)
(-1.19851e-06 -1.94423e-06 2.27838e-05 -0.00655243 0.00741158 -0.206052)
(-1.39676e-06 -2.09917e-06 1.76419e-05 -0.00654599 0.00735203 -0.206045)
(-8.27231e-07 1.55297e-06 1.30239e-05 -0.00655166 0.0073585 -0.206046)
(-6.58122e-07 -2.70508e-07 1.18594e-05 -0.0065384 0.00740129 -0.206051)
(-1.3644e-06 -2.23247e-06 8.24971e-06 -0.00654971 0.0073558 -0.206044)
(-4.08096e-07 1.39646e-06 -2.95845e-06 -0.00653387 0.00736134 -0.206041)
(6.4811e-07 1.16869e-06 3.56679e-06 -0.00652722 0.00740513 -0.206043)
(-5.45059e-07 -2.37479e-06 1.04454e-05 -0.00654934 0.00735682 -0.206041)
(-1.05927e-06 9.35654e-07 9.66716e-08 -0.00654676 0.00734882 -0.206042)
(-1.29587e-07 1.18696e-06 -1.9991e-06 -0.00653969 0.00739984 -0.206048)
(-3.30276e-07 -1.95633e-06 -1.82535e-06 -0.00654916 0.00735555 -0.206043)
(-7.88747e-07 -1.32161e-06 -4.04347e-06 -0.00654532 0.00735002 -0.206042)
(-4.88646e-07 -4.41404e-07 -1.2469e-05 -0.00653899 0.00735991 -0.206042)
(-3.86354e-07 -1.24861e-06 -1.4402e-05 -0.00652961 0.00734795 -0.206035)
(-2.63314e-07 2.48243e-06 -5.15788e-06 -0.00652609 0.00731348 -0.206032)
(-8.86064e-07 2.31925e-06 -6.26508e-06 -0.00655675 0.00736396 -0.206046)
(-2.08569e-06 9.00728e-07 -1.69893e-05 -0.00654548 0.00735304 -0.206046)
(-1.46472e-06 3.70524e-06 -3.07073e-05 -0.00654583 0.00740929 -0.206052)
(-4.09438e-06 -1.75325e-06 -3.28264e-05 -0.00654162 0.00741771 -0.206044)
(-3.95616e-05 -9.25277e-06 -4.2493e-05 -0.00653385 0.00735352 -0.206011)
(-0.000294084 -4.02406e-05 -0.000279288 -0.00653267 0.00732916 -0.205933)
(-0.00214886 -0.000170919 -0.00201558 -0.00638369 0.00711536 -0.206263)
(-0.0190857 -0.000310692 -0.00954958 -0.00577181 0.0061472 -0.208301)
(-0.0914154 -0.000614511 -0.054248 -0.00557299 0.00640846 -0.150963)
(-0.0920461 0.000369993 0.054777 -0.00351588 0.00401515 -0.150982)
(-0.0192621 0.000204746 0.00972282 -0.00357484 0.00381606 -0.208849)
(-0.00218266 0.000122136 0.0020789 -0.00402833 0.00444272 -0.206796)
(-0.000304584 3.07558e-05 0.000300318 -0.0041398 0.00462481 -0.206478)
(-4.23359e-05 4.31906e-06 5.39511e-05 -0.00415747 0.00465323 -0.20656)
(-5.58929e-06 9.29387e-07 2.68468e-05 -0.00415593 0.00465431 -0.20658)
(-1.33448e-06 -1.27894e-06 2.18688e-05 -0.00416112 0.00465871 -0.206586)
(-1.16426e-06 -1.25311e-06 1.74896e-05 -0.00414843 0.00464638 -0.206585)
(-7.89791e-07 8.7301e-07 1.3548e-05 -0.00415141 0.00464976 -0.206583)
(-1.0511e-06 -2.33672e-07 1.17268e-05 -0.00415481 0.00465375 -0.20657)
(-1.08144e-06 -5.85682e-07 2.13267e-07 -0.00415071 0.00465037 -0.206581)
(1.34759e-07 2.36324e-06 3.97887e-06 -0.00413915 0.00465218 -0.206578)
(1.22351e-07 -4.87667e-09 1.11572e-05 -0.00415137 0.00469881 -0.206586)
(-7.38744e-07 -3.41907e-06 3.00804e-06 -0.00415012 0.00464963 -0.206581)
(-6.53914e-07 3.40169e-07 1.56367e-07 -0.00415237 0.00464377 -0.206581)
(-3.00904e-07 1.21872e-06 -1.35651e-06 -0.00415457 0.00465265 -0.206571)
(-7.03242e-07 -1.20547e-06 -2.3605e-06 -0.0041496 0.00464875 -0.206583)
(-5.52429e-07 -1.11375e-06 -1.11583e-05 -0.00414857 0.00464456 -0.206582)
(-1.28247e-07 1.03321e-06 -5.7266e-06 -0.00413633 0.00461621 -0.206558)
(-4.49983e-07 1.77502e-06 -8.12956e-06 -0.00414656 0.0046876 -0.206584)
(-2.05399e-07 5.5986e-07 -1.07263e-05 -0.00412959 0.00469149 -0.206584)
(-8.82688e-07 -7.20162e-07 -5.29945e-06 -0.0041548 0.00465505 -0.206583)
(-1.89019e-06 6.0978e-07 -1.71235e-05 -0.00414806 0.00464778 -0.206585)
(-1.424e-06 3.72633e-06 -2.28075e-05 -0.00415826 0.00465725 -0.206585)
(-5.3606e-06 2.3144e-07 -2.6159e-05 -0.0041608 0.00470625 -0.206583)
(-4.23764e-05 -8.48094e-06 -5.94514e-05 -0.00414599 0.00469109 -0.20656)
(-0.000304278 -3.18242e-05 -0.000300349 -0.00412923 0.00458831 -0.206463)
(-0.00218284 -0.000121005 -0.00207279 -0.00403112 0.00444134 -0.206788)
(-0.0192622 -0.00020383 -0.00972463 -0.00357562 0.00381324 -0.208844)
(-0.092045 -0.000370927 -0.0547767 -0.00351652 0.00402177 -0.150984)
(-0.0924317 0.000216929 0.0550906 -0.00222652 0.00251824 -0.151005)
(-0.0193651 0.000130267 0.00983841 -0.00222313 0.00237814 -0.209169)
(-0.00220446 8.46131e-05 0.00212562 -0.00254178 0.00279388 -0.207125)
(-0.000312561 2.20234e-05 0.000310974 -0.00262682 0.00292237 -0.206814)
(-4.42446e-05 3.26118e-06 5.64215e-05 -0.00264488 0.00294396 -0.206887)
(-5.99533e-06 1.06478e-06 2.71413e-05 -0.00264017 0.00294361 -0.206919)
(-1.4716e-06 -7.74974e-07 2.12724e-05 -0.00264277 0.00294697 -0.206923)
(-1.05958e-06 -8.29127e-07 1.69156e-05 -0.00263524 0.0029391 -0.206923)
(-7.59006e-07 2.62169e-07 1.3541e-05 -0.00263662 0.002941 -0.206923)
(-9.49296e-07 -2.04235e-07 1.15075e-05 -0.00263944 0.00294546 -0.206911)
(-8.97239e-07 1.15277e-06 6.76965e-06 -0.00263692 0.00294184 -0.206919)
(-8.51159e-08 1.46532e-06 4.54932e-06 -0.00263655 0.0029842 -0.206923)
(-2.60043e-07 -1.25624e-06 4.54917e-06 -0.00264584 0.00295071 -0.206919)
(-6.47357e-07 -3.09888e-06 2.08679e-06 -0.0026361 0.00294174 -0.206919)
(-2.74825e-07 3.7749e-08 -8.66248e-08 -0.00263214 0.00290232 -0.206915)
(-3.36069e-07 1.80779e-06 -8.00764e-07 -0.00263799 0.00294382 -0.206922)
(-9.25545e-07 -8.9411e-07 -2.562e-06 -0.00263541 0.00294147 -0.206922)
(-4.63644e-07 1.21172e-06 -1.17306e-05 -0.00263832 0.00293808 -0.206921)
(1.92048e-07 1.36342e-08 -5.48087e-06 -0.00262034 0.00298403 -0.20692)
(-3.67801e-07 2.45375e-07 -9.24099e-07 -0.00263735 0.00290709 -0.206914)
(-5.80792e-07 1.33549e-06 -9.98142e-06 -0.00264131 0.00298558 -0.206925)
(-9.61879e-07 -1.45417e-06 -1.1795e-05 -0.00263999 0.00294445 -0.20692)
(-1.52799e-06 4.3332e-07 -1.69334e-05 -0.00263499 0.00294067 -0.206923)
(-1.44392e-06 2.16077e-06 -2.17255e-05 -0.00264169 0.00294674 -0.206922)
(-6.11786e-06 -8.60204e-08 -2.6422e-05 -0.00265133 0.00295322 -0.206916)
(-4.44494e-05 -4.27714e-06 -6.20488e-05 -0.00264311 0.00294392 -0.206895)
(-0.000311945 -2.32515e-05 -0.000311194 -0.00261951 0.00296168 -0.206806)
(-0.00220449 -8.54928e-05 -0.00211903 -0.00254464 0.00279122 -0.207118)
(-0.0193659 -0.000128968 -0.00983995 -0.00222217 0.00237552 -0.209167)
(-0.0924325 -0.000217337 -0.0550921 -0.00222265 0.0025231 -0.151006)
(-0.0926718 0.000125713 0.0552731 -0.00140792 0.00153223 -0.151016)
(-0.0194242 8.16307e-05 0.00991034 -0.00139481 0.00147895 -0.209361)
(-0.00221787 5.71829e-05 0.00215829 -0.00161376 0.00174829 -0.207327)
(-0.000318208 1.47135e-05 0.000318538 -0.00167744 0.00183777 -0.207021)
(-4.54964e-05 2.29319e-06 5.64582e-05 -0.00168599 0.00181658 -0.207103)
(-6.25257e-06 1.74488e-06 2.77327e-05 -0.00168906 0.00185227 -0.207128)
(-1.67567e-06 -3.82058e-07 2.0874e-05 -0.00168976 0.00185404 -0.207131)
(-1.03722e-06 -5.23578e-07 1.64207e-05 -0.00168528 0.00184996 -0.207133)
(-7.37139e-07 9.96479e-08 1.31174e-05 -0.00168581 0.00185162 -0.207133)
(-8.37498e-07 -2.44563e-07 1.10919e-05 -0.0016865 0.00185395 -0.207132)
(-7.51823e-07 3.37734e-07 7.21276e-06 -0.00168729 0.00185142 -0.207129)
(-2.04646e-07 9.83017e-07 5.23259e-06 -0.00169779 0.00185615 -0.207128)
(-6.57107e-07 -3.13719e-07 4.48362e-06 -0.00169197 0.00185785 -0.207126)
(-6.07047e-07 -1.32783e-06 -5.50987e-06 -0.00168574 0.00185231 -0.207129)
(2.56128e-07 1.16766e-07 -9.19242e-08 -0.001674 0.00184926 -0.207125)
(-4.17047e-07 6.51064e-07 6.40016e-06 -0.00168598 0.00185446 -0.207131)
(-9.63307e-07 -1.45722e-06 -2.8036e-06 -0.00168491 0.00185266 -0.20713)
(-4.45439e-07 2.02289e-06 -5.05799e-06 -0.00168144 0.0018158 -0.207127)
(-1.64463e-07 1.41557e-06 -1.1909e-05 -0.0016874 0.00189654 -0.207133)
(-9.60836e-08 -2.08486e-06 -7.20747e-06 -0.00167714 0.00185277 -0.207123)
(-4.4795e-07 4.18098e-08 -2.92443e-06 -0.00169116 0.00182442 -0.207125)
(-1.12817e-06 6.96764e-08 -1.21382e-05 -0.00169022 0.00185216 -0.207128)
(-1.36279e-06 4.50427e-07 -1.67213e-05 -0.00168513 0.00185166 -0.207132)
(-1.50157e-06 1.19408e-06 -2.09041e-05 -0.00168949 0.00185443 -0.20713)
(-6.46849e-06 -3.36927e-07 -2.64875e-05 -0.00169474 0.00185829 -0.207124)
(-4.59689e-05 -3.16728e-06 -5.71757e-05 -0.00169192 0.00185246 -0.207102)
(-0.000317721 -1.6853e-05 -0.000319712 -0.00168388 0.0018424 -0.207011)
(-0.00221761 -5.77217e-05 -0.00215844 -0.00161878 0.00174516 -0.207322)
(-0.0194252 -7.9096e-05 -0.00991203 -0.00139385 0.00147707 -0.209361)
(-0.0926698 -0.000125174 -0.0552762 -0.00141223 0.00157366 -0.151023)
(-0.0928184 7.22312e-05 0.0553734 -0.000895823 0.000965631 -0.151026)
(-0.0194577 4.84086e-05 0.00996357 -0.000890643 0.000907573 -0.209477)
(-0.00222607 3.74573e-05 0.00218039 -0.00104015 0.0010783 -0.207452)
(-0.000322027 1.09255e-05 0.000317559 -0.0010874 0.00113891 -0.207148)
(-4.61825e-05 1.46243e-06 5.71585e-05 -0.00108639 0.00114786 -0.207231)
(-6.44076e-06 4.64523e-07 3.4652e-05 -0.00109837 0.0011471 -0.207257)
(-1.94101e-06 -2.8673e-08 2.06819e-05 -0.00109715 0.00114868 -0.20726)
(-1.02555e-06 -2.66959e-07 1.61236e-05 -0.00109438 0.00114691 -0.207262)
(-7.28991e-07 1.96481e-07 1.31007e-05 -0.00109471 0.00114848 -0.207263)
(-8.4506e-07 -3.58176e-07 1.08657e-05 -0.00109541 0.00115065 -0.207261)
(-6.3295e-07 -8.4828e-07 7.37718e-06 -0.00109729 0.00114693 -0.207258)
(-1.57357e-07 7.89074e-07 5.69529e-06 -0.0010964 0.001117 -0.207253)
(-6.84059e-07 7.66175e-07 4.30735e-06 -0.00109819 0.0011512 -0.207256)
(-6.22291e-07 5.20667e-08 6.5216e-07 -0.0010949 0.00114887 -0.207258)
(1.24351e-07 1.27379e-07 1.52089e-07 -0.00109637 0.00118262 -0.207258)
(-6.16129e-07 -2.99763e-07 2.11145e-07 -0.00109635 0.00115045 -0.207257)
(-7.72383e-07 -1.58553e-07 -9.81173e-06 -0.00109456 0.00114974 -0.207258)
(6.33629e-08 1.13763e-06 -4.6694e-06 -0.00108164 0.00114861 -0.207255)
(-4.8448e-07 1.0113e-06 1.54616e-06 -0.00110306 0.00115694 -0.207258)
(-5.65092e-07 -5.13712e-07 -1.39337e-05 -0.00109768 0.00118486 -0.207257)
(-1.29936e-07 -1.34513e-06 -9.52156e-06 -0.00108687 0.00115392 -0.207252)
(-9.31812e-07 -6.48512e-07 -5.73218e-06 -0.00110126 0.00114714 -0.207257)
(-1.39253e-06 6.22901e-07 -1.643e-05 -0.00109428 0.00114882 -0.207261)
(-1.59835e-06 5.91152e-07 -2.05038e-05 -0.00109749 0.00114913 -0.207259)
(-6.92944e-06 -6.47948e-07 -2.66998e-05 -0.00109983 0.001151 -0.207254)
(-4.71166e-05 -2.64385e-06 -6.4966e-05 -0.00110193 0.00114668 -0.20723)
(-0.000321239 -1.21169e-05 -0.000325887 -0.00108208 0.00110763 -0.207133)
(-0.00222515 -3.7515e-05 -0.00217419 -0.00103694 0.0010417 -0.207443)
(-0.0194589 -4.65806e-05 -0.00995528 -0.000890264 0.000907068 -0.209476)
(-0.0928143 -7.10746e-05 -0.0553818 -0.000908923 0.000965448 -0.151035)
(-0.0928997 4.05255e-05 0.0554407 -0.000606735 0.000609954 -0.151042)
(-0.0194772 2.69995e-05 0.00997898 -0.000589751 0.000535065 -0.209544)
(-0.00223012 2.3276e-05 0.00219479 -0.000693934 0.000639165 -0.207526)
(-0.00032453 7.78665e-06 0.000328419 -0.000730648 0.000678096 -0.207224)
(-4.71965e-05 3.77517e-07 5.84398e-05 -0.000741819 0.000716712 -0.207302)
(-6.51373e-06 -3.11976e-07 2.79857e-05 -0.000741718 0.000681251 -0.207335)
(-1.8607e-06 4.39524e-07 2.07229e-05 -0.000737253 0.000682958 -0.207339)
(-1.03526e-06 -8.18439e-08 1.60015e-05 -0.000735586 0.000682555 -0.207341)
(-7.53458e-07 5.2516e-08 1.3273e-05 -0.00073599 0.000683805 -0.207341)
(-9.95261e-07 -6.7074e-07 1.07522e-05 -0.000737722 0.00068514 -0.20733)
(-5.03317e-07 2.23368e-07 6.2381e-07 -0.000740853 0.000681706 -0.207337)
(1.31637e-07 9.11502e-07 6.10677e-06 -0.000726479 0.00068551 -0.20733)
(-8.11634e-07 -1.87998e-07 1.08811e-05 -0.00073751 0.000685248 -0.207335)
(-7.56672e-07 -1.12006e-06 4.54998e-07 -0.000736093 0.000684163 -0.207336)
(2.18013e-07 -1.47776e-07 3.68298e-07 -0.000739066 0.00065005 -0.207333)
(-4.65985e-07 9.49487e-07 4.87418e-07 -0.000739054 0.000684233 -0.207326)
(-7.46922e-07 1.41062e-06 -3.18914e-06 -0.000736776 0.000685033 -0.207327)
(-2.23985e-07 7.78209e-07 -4.26219e-06 -0.000733131 0.00072016 -0.207337)
(-4.23936e-07 -1.6163e-06 -5.03157e-06 -0.00074154 0.000689359 -0.207334)
(-5.18237e-07 9.26903e-07 -7.41519e-06 -0.000739207 0.000651905 -0.207332)
(-4.5597e-07 -8.1893e-07 -9.72317e-06 -0.000736094 0.000723159 -0.207334)
(-7.78092e-07 -1.61686e-06 -1.25904e-05 -0.000734869 0.000648204 -0.207333)
(-1.16011e-06 1.16469e-06 -1.62759e-05 -0.000736137 0.00068462 -0.207338)
(-1.75368e-06 2.19197e-07 -2.04232e-05 -0.000738381 0.000682994 -0.207337)
(-7.114e-06 -1.25478e-06 -2.6907e-05 -0.000738606 0.000684408 -0.207332)
(-4.79051e-05 2.88358e-08 -6.56859e-05 -0.00073491 0.000647578 -0.207305)
(-0.000323792 -5.9013e-06 -0.000337135 -0.000719792 0.000714743 -0.207213)
(-0.00222921 -2.50484e-05 -0.00218879 -0.000680809 0.000638107 -0.207517)
(-0.0194774 -2.75558e-05 -0.00997335 -0.000590654 0.000534691 -0.209542)
(-0.0928998 -3.99239e-05 -0.0554374 -0.000604314 0.000572089 -0.151046)
(-0.0929482 2.09114e-05 0.0554744 -0.00043575 0.000263013 -0.151046)
(-0.0194876 1.54132e-05 0.00999341 -0.000420444 0.000279988 -0.209584)
(-0.00223252 1.25299e-05 0.00220348 -0.000498485 0.000336121 -0.207569)
(-0.000326129 2.67902e-06 0.000332139 -0.000528908 0.000357221 -0.207258)
(-4.75919e-05 -6.47169e-07 5.7281e-05 -0.000539858 0.000324575 -0.207355)
(-6.38937e-06 1.38869e-06 2.84106e-05 -0.000529834 0.000324614 -0.207378)
(-1.93899e-06 1.23081e-06 2.09201e-05 -0.000532861 0.00035968 -0.207384)
(-1.13877e-06 2.56311e-08 1.59858e-05 -0.000532028 0.000359944 -0.207386)
(-8.45429e-07 -1.19638e-07 1.29919e-05 -0.000532511 0.000360806 -0.207385)
(-7.6898e-07 -1.33645e-06 1.01693e-05 -0.000533139 0.000359936 -0.207384)
(-2.93804e-07 1.38109e-06 7.70931e-06 -0.000529673 0.000325463 -0.207379)
(-2.33101e-07 1.46535e-06 6.53005e-06 -0.000532064 0.000396707 -0.207378)
(-1.10521e-06 -1.18345e-06 4.10223e-06 -0.000534299 0.000362271 -0.207379)
(-6.35275e-07 -2.75658e-07 -6.44718e-06 -0.000532409 0.000361233 -0.207381)
(5.60307e-07 -4.88032e-07 -8.03338e-08 -0.000524676 0.000360619 -0.207377)
(-2.89679e-07 7.5e-08 7.20706e-06 -0.000535426 0.00035801 -0.207381)
(-8.24366e-07 1.05726e-06 -2.50314e-06 -0.000533358 0.000360848 -0.207381)
(-5.39714e-07 4.59731e-07 -3.59822e-06 -0.000538278 0.000363275 -0.207382)
(-4.45858e-07 -1.5867e-07 -1.16081e-05 -0.000536501 0.000362771 -0.20737)
(-3.92357e-07 4.33581e-07 -7.29432e-06 -0.000523535 0.000362804 -0.207375)