/*--------------------------------*- C++ -*----------------------------------*\
| =========                 |                                                 |
| \\      /  F ield         | OpenFOAM: The Open Source CFD Toolbox           |
|  \\    /   O peration     | Version:  2106                                  |
|   \\  /    A nd           | Website:  www.openfoam.com                      |
|    \\/     M anipulation  |                                                 |
\*---------------------------------------------------------------------------*/
FoamFile
{
    version     2.0;
    format      ascii;
    arch        "LSB;label=32;scalar=64";
    class       volSymmTensorField;
    location    "817";
    object      sigma;
}
// * * * * * * * * * * * * * * * * * * * * * * * * * * * * * * * * * * * * * //

dimensions      [1 -1 -2 0 0 0 0];

internalField   nonuniform List<symmTensor> 
9000
(
(5.39354e+07 -135927 2.48449e+07 2.21918e+07 3.16775e+07 8.49938e+07)
(9.63409e+07 277445 4.84072e+06 2.4274e+07 3.35973e+07 6.9011e+07)
(1.10954e+08 173203 1.32349e+06 2.61169e+07 3.56752e+07 8.12465e+07)
(1.12755e+08 26120 232904 2.62567e+07 3.61336e+07 8.33123e+07)
(1.12971e+08 -4100.47 20431.6 2.62935e+07 3.61473e+07 8.33848e+07)
(1.12978e+08 -1061.86 9040.85 2.63689e+07 3.60382e+07 8.32246e+07)
(1.12977e+08 -18.8162 13118.8 2.63016e+07 3.61224e+07 8.32805e+07)
(1.12985e+08 -3052.3 3976.19 2.63777e+07 3.60387e+07 8.32294e+07)
(1.12982e+08 3327.59 16131.5 2.6376e+07 3.6037e+07 8.32228e+07)
(1.12997e+08 3419.72 -3843.62 2.63038e+07 3.61337e+07 8.33529e+07)
(1.13002e+08 -3232.11 -25294.2 2.63652e+07 3.60732e+07 8.32877e+07)
(1.1298e+08 -278.217 20503.2 2.64348e+07 3.59749e+07 8.314e+07)
(1.12991e+08 2812.47 30402 2.63026e+07 3.61275e+07 8.33315e+07)
(1.12989e+08 427.542 -15571.1 2.62913e+07 3.61321e+07 8.33349e+07)
(1.13005e+08 445.105 957.688 2.63613e+07 3.60778e+07 8.32983e+07)
(1.12999e+08 -612.147 15719.4 2.63024e+07 3.61346e+07 8.33519e+07)
(1.12989e+08 174.846 -18738.5 2.62917e+07 3.61316e+07 8.3332e+07)
(1.13004e+08 390.241 -1614.51 2.636e+07 3.60789e+07 8.33035e+07)
(1.12998e+08 -3438.05 -12799.7 2.63068e+07 3.61303e+07 8.33431e+07)
(1.12988e+08 -3288.27 -13754 2.6438e+07 3.59798e+07 8.3168e+07)
(1.1298e+08 3002.42 20486 2.63787e+07 3.60335e+07 8.32057e+07)
(1.12992e+08 3372.94 3507.83 2.62986e+07 3.61304e+07 8.33399e+07)
(1.13e+08 -3032.73 -16507.9 2.63033e+07 3.61351e+07 8.33562e+07)
(1.12987e+08 -417.814 -13656.6 2.63727e+07 3.6041e+07 8.32376e+07)
(1.12989e+08 855.901 -12430.9 2.6301e+07 3.61276e+07 8.33337e+07)
(1.12958e+08 1000.99 -48005.9 2.6366e+07 3.6054e+07 8.32699e+07)
(1.12755e+08 -23568.4 -226894 2.63209e+07 3.60693e+07 8.32358e+07)
(1.10943e+08 -173089 -1.30403e+06 2.61092e+07 3.56692e+07 8.12225e+07)
(9.63382e+07 -276957 -4.83986e+06 2.42737e+07 3.35968e+07 6.90091e+07)
(5.39339e+07 135890 -2.48455e+07 2.21902e+07 3.16752e+07 8.4989e+07)
(4.17511e+07 -5808.65 2.39766e+07 2.85099e+07 3.51727e+07 1.25595e+07)
(7.28746e+07 352097 4.1396e+06 2.80981e+07 3.70121e+07 -8.945e+06)
(8.60173e+07 223204 795595 3.05973e+07 3.93263e+07 -1.4307e+06)
(8.73506e+07 36608.6 118295 3.05057e+07 3.99236e+07 -568232)
(8.74936e+07 -3261.18 16594.7 3.05448e+07 3.99406e+07 -541561)
(8.76098e+07 -1685.06 16086.6 3.07627e+07 3.99062e+07 -445119)
(8.75304e+07 261.291 13281.5 3.05959e+07 3.99119e+07 -531461)
(8.7625e+07 -884.388 -1394.25 3.07887e+07 3.99085e+07 -429971)
(8.76223e+07 1064.15 17647.5 3.07851e+07 3.99049e+07 -436373)
(8.75213e+07 3725.95 17463.5 3.05736e+07 3.99185e+07 -539363)
(8.75805e+07 1714.21 -5899.96 3.0683e+07 4.00087e+07 -465287)
(8.7687e+07 -3036.06 2248.1 3.0903e+07 3.99905e+07 -353830)
(8.75205e+07 -3604.27 12266 3.05736e+07 3.99095e+07 -542037)
(8.75401e+07 3254.57 928.766 3.06048e+07 3.98397e+07 -512741)
(8.75741e+07 1935.76 -755.74 3.06699e+07 4.00157e+07 -473673)
(8.75191e+07 -4650.38 -1068.91 3.05694e+07 3.99208e+07 -543931)
(8.75404e+07 2664.65 -430.92 3.06056e+07 3.98392e+07 -513930)
(8.7574e+07 1963.02 -1800.59 3.06678e+07 4.00164e+07 -471088)
(8.75248e+07 -1108.9 -12718.6 3.05821e+07 3.99135e+07 -538082)
(8.76832e+07 -991.41 -14414.3 3.08957e+07 4.00011e+07 -356351)
(8.76349e+07 -2143.5 2428.44 3.08059e+07 3.98985e+07 -417698)
(8.75139e+07 992.26 2564.96 3.05606e+07 3.99134e+07 -550148)
(8.75197e+07 -559.603 -19389.2 3.05706e+07 3.99212e+07 -541667)
(8.76181e+07 -896.946 -11789.9 3.0773e+07 3.99101e+07 -435392)
(8.75142e+07 1764.91 -14919.3 3.05667e+07 3.99083e+07 -546269)
(8.75959e+07 5122.55 -26146.9 3.07548e+07 3.99319e+07 -431015)
(8.74161e+07 -37896 -107790 3.06285e+07 4.00077e+07 -487013)
(8.60343e+07 -225770 -796604 3.06331e+07 3.92437e+07 -1.41305e+06)
(7.28761e+07 -350374 -4.14094e+06 2.81005e+07 3.7011e+07 -8.94286e+06)
(4.17503e+07 5795.13 -2.39769e+07 2.85066e+07 3.51675e+07 1.25577e+07)
(4.53337e+07 604968 2.41142e+07 5.50067e+07 3.00049e+07 5.55999e+06)
(8.00971e+07 449552 4.05695e+06 5.75572e+07 3.12853e+07 -1.55659e+07)
(9.39294e+07 268006 705500 6.21721e+07 3.33852e+07 -8.27528e+06)
(9.53065e+07 50672.8 87206.3 6.23348e+07 3.39924e+07 -7.57737e+06)
(9.54419e+07 -455.083 28829.6 6.23824e+07 3.40147e+07 -7.55964e+06)
(9.5522e+07 -2661.27 17853.7 6.251e+07 3.40712e+07 -7.46634e+06)
(9.54674e+07 1124.55 12830.4 6.24148e+07 3.39831e+07 -7.54749e+06)
(9.55184e+07 2311.38 11351 6.25085e+07 3.41214e+07 -7.48114e+06)
(9.55135e+07 -1475.89 4088.85 6.24989e+07 3.41177e+07 -7.48843e+06)
(9.54671e+07 -1434.53 4811.46 6.24118e+07 3.3994e+07 -7.55202e+06)
(9.54769e+07 1660.67 9559.49 6.24285e+07 3.39809e+07 -7.53407e+06)
(9.55322e+07 -1392.67 2460.93 6.25306e+07 3.4108e+07 -7.45752e+06)
(9.54955e+07 -1775.48 -10280.3 6.24515e+07 3.39371e+07 -7.49983e+06)
(9.55072e+07 1984.26 305.188 6.24871e+07 3.39954e+07 -7.50261e+06)
(9.54726e+07 269.446 6226.91 6.24218e+07 3.39892e+07 -7.54023e+06)
(9.54644e+07 -549.881 -8784.75 6.24089e+07 3.3997e+07 -7.55465e+06)
(9.55057e+07 238.806 85.8387 6.2486e+07 3.39948e+07 -7.50542e+06)
(9.5473e+07 146.852 5945.31 6.24204e+07 3.39889e+07 -7.54045e+06)
(9.54689e+07 1204.26 1439.47 6.24176e+07 3.39889e+07 -7.54883e+06)
(9.55288e+07 1446.57 -476.776 6.25249e+07 3.41107e+07 -7.46328e+06)
(9.55268e+07 -2846.78 -11058.6 6.25221e+07 3.41183e+07 -7.46737e+06)
(9.54797e+07 -1312.01 -12043.8 6.24291e+07 3.39419e+07 -7.52988e+06)
(9.54654e+07 2631.16 -6675.68 6.24105e+07 3.39976e+07 -7.5538e+06)
(9.55095e+07 -2048.01 -10803.8 6.24898e+07 3.41213e+07 -7.49003e+06)
(9.54759e+07 2086.13 -15322.7 6.24258e+07 3.39367e+07 -7.52741e+06)
(9.54942e+07 2390.22 -23656.1 6.2477e+07 3.41426e+07 -7.4872e+06)
(9.5323e+07 -52806 -97244.9 6.23643e+07 3.39731e+07 -7.55059e+06)
(9.39695e+07 -267867 -709027 6.22493e+07 3.33751e+07 -8.22945e+06)
(8.01007e+07 -449829 -4.05152e+06 5.75612e+07 3.12844e+07 -1.55613e+07)
(4.53316e+07 -604858 -2.41141e+07 5.49983e+07 2.99983e+07 5.55565e+06)
(4.9761e+07 936520 2.49513e+07 7.38577e+07 2.11031e+07 1.24034e+07)
(8.85268e+07 454098 4.1976e+06 7.8132e+07 2.18036e+07 -8.60794e+06)
(1.03358e+08 255335 767244 8.41468e+07 2.35275e+07 -653293)
(1.04869e+08 51823.9 97828.5 8.45315e+07 2.39808e+07 151010)
(1.05016e+08 -394.137 21181.6 8.45777e+07 2.40047e+07 168117)
(1.05074e+08 -3486.5 18136.7 8.46577e+07 2.39514e+07 234294)
(1.05051e+08 652.289 17198.8 8.46217e+07 2.3945e+07 196053)
(1.05033e+08 793.31 9788.11 8.45949e+07 2.39885e+07 166605)
(1.05054e+08 255.608 6442.25 8.46183e+07 2.39505e+07 206666)
(1.05043e+08 171 6045.56 8.46065e+07 2.39882e+07 177496)
(1.05045e+08 -1026.86 7615.46 8.46122e+07 2.39813e+07 182358)
(1.05051e+08 388.106 -2325.65 8.46174e+07 2.39767e+07 201646)
(1.05072e+08 3067.51 -1831 8.46603e+07 2.39886e+07 218306)
(1.05052e+08 534.182 5392.71 8.46281e+07 2.40736e+07 183572)
(1.05044e+08 -1793.43 -384.546 8.4613e+07 2.39886e+07 180708)
(1.0504e+08 2115.6 -1974.63 8.46034e+07 2.39915e+07 173281)
(1.0505e+08 -312.947 -130.447 8.46257e+07 2.40729e+07 179784)
(1.05045e+08 -2183.28 -157.736 8.46129e+07 2.39885e+07 180286)
(1.05053e+08 -807.794 -757.21 8.46193e+07 2.39835e+07 200285)
(1.05039e+08 -386.392 -2963.44 8.46039e+07 2.39824e+07 175874)
(1.05047e+08 578.148 -13573 8.4611e+07 2.39832e+07 193640)
(1.05072e+08 815.24 -10212.1 8.46535e+07 2.39856e+07 221054)
(1.05041e+08 -647.771 -3515.95 8.46066e+07 2.39929e+07 174274)
(1.05041e+08 -1979.69 -15645.1 8.4603e+07 2.39527e+07 182742)
(1.05081e+08 2507.13 -15562.7 8.4668e+07 2.39463e+07 245232)
(1.05013e+08 99.0068 -17890 8.45714e+07 2.4004e+07 167668)
(1.04878e+08 -50399.8 -98668.1 8.45484e+07 2.39676e+07 166033)
(1.03381e+08 -254074 -771147 8.41822e+07 2.3601e+07 -616670)
(8.85307e+07 -456858 -4.19949e+06 7.81357e+07 2.18029e+07 -8.60361e+06)
(4.97678e+07 -936160 -2.49503e+07 7.38715e+07 2.10635e+07 1.24197e+07)
(5.26186e+07 917438 2.59833e+07 8.56339e+07 1.36103e+07 1.84527e+07)
(9.39602e+07 397608 4.41109e+06 9.09625e+07 1.38114e+07 -3.00229e+06)
(1.09652e+08 212794 855588 9.77961e+07 1.5162e+07 5.54203e+06)
(1.11313e+08 44529.3 108359 9.83889e+07 1.54555e+07 6.48922e+06)
(1.11488e+08 2782.65 20699.9 9.8456e+07 1.54504e+07 6.5259e+06)
(1.11515e+08 -2440.96 12243.6 9.84948e+07 1.55249e+07 6.52559e+06)
(1.11527e+08 -1464.95 16615.7 9.85051e+07 1.54336e+07 6.54763e+06)
(1.11498e+08 1150.77 9198.13 9.84572e+07 1.54721e+07 6.50635e+06)
(1.11517e+08 -83.1622 7080.64 9.84888e+07 1.54728e+07 6.53068e+06)
(1.11511e+08 -1139.45 10923.9 9.8467e+07 1.54668e+07 6.53079e+06)
(1.11516e+08 -1069.12 6366.89 9.84824e+07 1.54354e+07 6.53502e+06)
(1.11505e+08 2046.91 1900.31 9.84644e+07 1.54669e+07 6.52241e+06)
(1.11504e+08 2538.55 -1330.67 9.84666e+07 1.55172e+07 6.50964e+06)
(1.11494e+08 -626.579 1180.6 9.84424e+07 1.548e+07 6.50158e+06)
(1.11505e+08 -1104.65 406.117 9.84662e+07 1.54686e+07 6.5169e+06)
(1.11501e+08 1311.74 -2341.52 9.8456e+07 1.54693e+07 6.51143e+06)
(1.11492e+08 -170.666 -461.749 9.84405e+07 1.54794e+07 6.49851e+06)
(1.11505e+08 -1778.9 515.287 9.84662e+07 1.54685e+07 6.51599e+06)
(1.11515e+08 -886.418 -1765.2 9.84718e+07 1.54659e+07 6.54081e+06)
(1.11501e+08 -53.5885 -3958.27 9.84602e+07 1.54682e+07 6.5116e+06)
(1.11503e+08 1417.47 -7551.41 9.84622e+07 1.54711e+07 6.5164e+06)
(1.11514e+08 971.232 -8997.5 9.84839e+07 1.54919e+07 6.52654e+06)
(1.11502e+08 -591.17 -13026 9.84624e+07 1.54711e+07 6.51155e+06)
(1.11512e+08 -513.23 -15620.9 9.84806e+07 1.54707e+07 6.52572e+06)
(1.11527e+08 1286.42 -10359.4 9.85081e+07 1.54875e+07 6.54725e+06)
(1.11476e+08 -2476.93 -18193.1 9.84372e+07 1.5481e+07 6.51002e+06)
(1.11317e+08 -44588.9 -109372 9.83949e+07 1.54463e+07 6.50009e+06)
(1.09646e+08 -211310 -857943 9.77818e+07 1.51691e+07 5.53906e+06)
(9.3964e+07 -398185 -4.41756e+06 9.09652e+07 1.38106e+07 -2.99923e+06)
(5.26307e+07 -916420 -2.59768e+07 8.56662e+07 1.36053e+07 1.84732e+07)
(5.41911e+07 721340 2.68852e+07 9.27737e+07 8.49453e+06 2.19395e+07)
(9.69926e+07 314260 4.61807e+06 9.87886e+07 8.44874e+06 -81935.8)
(1.13369e+08 165028 934299 1.06194e+08 9.38125e+06 8.93312e+06)
(1.15118e+08 38036.2 120148 1.06899e+08 9.654e+06 9.92511e+06)
(1.15314e+08 4064.72 24737.5 1.06983e+08 9.67506e+06 9.96709e+06)
(1.15314e+08 -1291.99 15380 1.0696e+08 9.716e+06 9.93301e+06)
(1.15347e+08 -1992.73 12727.7 1.07015e+08 9.6778e+06 9.97472e+06)
(1.15325e+08 788.481 12770.5 1.06972e+08 9.67148e+06 9.94855e+06)
(1.15323e+08 -864.083 7044.7 1.06974e+08 9.70809e+06 9.94125e+06)
(1.15336e+08 -1482.42 2822.79 1.06986e+08 9.64483e+06 9.96643e+06)
(1.15343e+08 -847.924 5723.12 1.07004e+08 9.66556e+06 9.97205e+06)
(1.15344e+08 68.6128 5671.9 1.06995e+08 9.64365e+06 9.98761e+06)
(1.15326e+08 2496.46 -307.04 1.06966e+08 9.64944e+06 9.95562e+06)
(1.15322e+08 442.472 1798.4 1.06962e+08 9.67801e+06 9.94572e+06)
(1.15329e+08 -1312.43 486.509 1.06976e+08 9.66874e+06 9.95574e+06)
(1.15335e+08 958.634 -1933.37 1.06983e+08 9.64477e+06 9.96608e+06)
(1.15321e+08 419.489 -806.92 1.06961e+08 9.67718e+06 9.94431e+06)
(1.15328e+08 -2195.48 -236.079 1.06976e+08 9.66914e+06 9.95405e+06)
(1.15344e+08 -767.632 -2350.01 1.06993e+08 9.64368e+06 9.98617e+06)
(1.15325e+08 692.509 -3976.96 1.0697e+08 9.66834e+06 9.95144e+06)
(1.15333e+08 1528.36 -11283.9 1.06976e+08 9.66988e+06 9.9691e+06)
(1.15332e+08 974.226 -8371.66 1.06984e+08 9.67496e+06 9.95664e+06)
(1.15325e+08 -210.203 -4271.5 1.06973e+08 9.67078e+06 9.9492e+06)
(1.15339e+08 348.113 -16243.2 1.06991e+08 9.68393e+06 9.97408e+06)
(1.15335e+08 220.439 -14287.5 1.06993e+08 9.685e+06 9.9638e+06)
(1.15299e+08 -4266.19 -18377.2 1.06952e+08 9.67586e+06 9.95278e+06)
(1.15138e+08 -37337.8 -125934 1.06922e+08 9.62363e+06 9.96702e+06)
(1.13357e+08 -163334 -935455 1.06178e+08 9.38584e+06 8.91321e+06)
(9.69971e+07 -313511 -4.61938e+06 9.87916e+07 8.44802e+06 -77538.1)
(5.41961e+07 -720852 -2.68783e+07 9.27848e+07 8.52829e+06 2.19423e+07)
(5.50567e+07 497774 2.75477e+07 9.71404e+07 5.28175e+06 2.38043e+07)
(9.86731e+07 231241 4.78871e+06 1.03575e+08 5.1542e+06 1.31207e+06)
(1.15527e+08 122710 993559 1.11399e+08 5.83623e+06 1.06147e+07)
(1.1735e+08 30076.6 141259 1.12174e+08 6.01907e+06 1.16653e+07)
(1.17551e+08 3505.72 26222.6 1.12246e+08 6.06746e+06 1.17066e+07)
(1.1756e+08 -515.7 10699.2 1.1223e+08 6.04552e+06 1.16819e+07)
(1.17586e+08 -1391.24 12618.2 1.12272e+08 6.06573e+06 1.17131e+07)
(1.17572e+08 -715.517 12548.3 1.12249e+08 6.03482e+06 1.16927e+07)
(1.17567e+08 -132.882 3024.12 1.12239e+08 6.03912e+06 1.16861e+07)
(1.17584e+08 -104.716 6461.5 1.12273e+08 6.03367e+06 1.17063e+07)
(1.17575e+08 -914.729 4979.73 1.12259e+08 6.06147e+06 1.16932e+07)
(1.17586e+08 -905.973 -1652.55 1.12272e+08 6.0325e+06 1.17126e+07)
(1.17589e+08 1487.83 4692.78 1.12274e+08 6.01605e+06 1.17172e+07)
(1.17571e+08 270.755 5543.26 1.12245e+08 6.03898e+06 1.16937e+07)
(1.17575e+08 -465.562 -3462.33 1.12252e+08 6.03294e+06 1.16981e+07)
(1.17586e+08 744.112 -1441.31 1.12273e+08 6.03327e+06 1.17103e+07)
(1.17571e+08 -200.012 2833.52 1.12245e+08 6.03824e+06 1.16929e+07)
(1.17575e+08 -1395.81 -5169.29 1.12253e+08 6.03335e+06 1.16972e+07)
(1.17583e+08 -998.018 -2604.59 1.12268e+08 6.03219e+06 1.17073e+07)
(1.17581e+08 -448.363 136.334 1.12261e+08 6.01084e+06 1.1709e+07)
(1.17585e+08 2483 -7003.99 1.12262e+08 6.01374e+06 1.1722e+07)
(1.17568e+08 1545.89 -7699.31 1.12246e+08 6.06867e+06 1.16837e+07)
(1.17571e+08 -680.417 -12237.9 1.1225e+08 6.03498e+06 1.1692e+07)
(1.17579e+08 1044.78 -16194.2 1.12261e+08 6.03969e+06 1.17028e+07)
(1.17579e+08 -703.557 -9851.82 1.12264e+08 6.04965e+06 1.1704e+07)
(1.17553e+08 -4541.87 -23652.6 1.12247e+08 6.01519e+06 1.17115e+07)
(1.1737e+08 -27929.4 -142598 1.12201e+08 6.01457e+06 1.17035e+07)
(1.15527e+08 -121621 -991476 1.11396e+08 5.83803e+06 1.06172e+07)
(9.86771e+07 -231003 -4.79015e+06 1.03577e+08 5.15312e+06 1.31792e+06)
(5.50562e+07 -498445 -2.75448e+07 9.7134e+07 5.28784e+06 2.37992e+07)
(5.55663e+07 316267 2.79859e+07 9.98532e+07 3.30119e+06 2.48522e+07)
(9.96495e+07 160562 4.92425e+06 1.06519e+08 3.17179e+06 2.0281e+06)
(1.16817e+08 88875.7 1.03884e+06 1.14634e+08 3.6703e+06 1.15175e+07)
(1.18703e+08 21531.6 147506 1.15481e+08 3.77911e+06 1.26163e+07)
(1.18909e+08 2813.73 27402 1.15546e+08 3.79862e+06 1.26581e+07)
(1.18928e+08 552.257 13838.1 1.15548e+08 3.79985e+06 1.26411e+07)
(1.1893e+08 -1002.96 11753.3 1.1555e+08 3.82336e+06 1.26359e+07)
(1.18936e+08 -1082.88 9100.78 1.1556e+08 3.79264e+06 1.26456e+07)
(1.18934e+08 801.119 6718.52 1.15554e+08 3.79598e+06 1.26426e+07)
(1.18938e+08 -139.545 6117.85 1.15565e+08 3.81805e+06 1.26443e+07)
(1.18935e+08 -1151.65 4255.72 1.15557e+08 3.79458e+06 1.26452e+07)
(1.18945e+08 720.383 -1526.16 1.15574e+08 3.79744e+06 1.26559e+07)
(1.18948e+08 602.885 1839.97 1.1558e+08 3.82003e+06 1.26573e+07)
(1.18937e+08 -1225.07 5388.37 1.15559e+08 3.79511e+06 1.26485e+07)
(1.18938e+08 482.669 49.8693 1.15561e+08 3.79098e+06 1.26488e+07)
(1.18939e+08 612.309 -1031.26 1.15565e+08 3.8173e+06 1.26463e+07)
(1.18937e+08 -1009.2 -941.628 1.15558e+08 3.79445e+06 1.26469e+07)
(1.18938e+08 -681.77 -2085.87 1.15562e+08 3.7916e+06 1.26494e+07)
(1.18942e+08 -227.704 -6432.28 1.15569e+08 3.7967e+06 1.26528e+07)
(1.18949e+08 -644.113 -7429.44 1.15581e+08 3.79053e+06 1.26632e+07)
(1.18952e+08 1280.59 -2660.76 1.15586e+08 3.77275e+06 1.26685e+07)
(1.18931e+08 1196.42 -3231.92 1.15549e+08 3.79879e+06 1.26399e+07)
(1.18935e+08 464.652 -8764.13 1.1556e+08 3.79316e+06 1.26446e+07)
(1.18933e+08 1911.4 -15840.8 1.15557e+08 3.82218e+06 1.2639e+07)
(1.18936e+08 -904.435 -16933.9 1.15564e+08 3.82652e+06 1.26479e+07)
(1.1892e+08 -4773.16 -21920.6 1.1557e+08 3.79341e+06 1.26669e+07)
(1.18708e+08 -20758.6 -144075 1.1549e+08 3.78084e+06 1.26266e+07)
(1.16818e+08 -88170.8 -1.03976e+06 1.14634e+08 3.67055e+06 1.15235e+07)
(9.96609e+07 -160274 -4.92627e+06 1.06529e+08 3.17111e+06 2.05193e+06)
(5.55655e+07 -317003 -2.79845e+07 9.98484e+07 3.30589e+06 2.48474e+07)
(5.58853e+07 190865 2.82574e+07 1.01555e+08 2.07127e+06 2.54824e+07)
(1.00245e+08 105621 5.01564e+06 1.08338e+08 1.96856e+06 2.44445e+06)
(1.17621e+08 63005.5 1.07243e+06 1.16669e+08 2.29183e+06 1.20688e+07)
(1.19546e+08 15865.8 154923 1.17567e+08 2.38577e+06 1.31885e+07)
(1.19755e+08 2228.04 27831.3 1.17633e+08 2.40043e+06 1.32206e+07)
(1.19783e+08 479.436 13849.3 1.17642e+08 2.40099e+06 1.32185e+07)
(1.19782e+08 -659.759 11281.3 1.17636e+08 2.40326e+06 1.32123e+07)
(1.19788e+08 -646.434 9022.26 1.17649e+08 2.39689e+06 1.32197e+07)
(1.19788e+08 450.353 6988.92 1.17647e+08 2.39864e+06 1.32195e+07)
(1.19792e+08 -120.542 6049.44 1.17649e+08 2.4007e+06 1.32309e+07)
(1.19789e+08 -302.132 110.017 1.17648e+08 2.39895e+06 1.32217e+07)
(1.19797e+08 1219.11 2052.55 1.17662e+08 2.39989e+06 1.32311e+07)
(1.19788e+08 -2.51569 5755.59 1.17646e+08 2.42394e+06 1.32174e+07)
(1.1979e+08 -1763.77 1551.74 1.17649e+08 2.39857e+06 1.3223e+07)
(1.19788e+08 175.481 80.6638 1.17647e+08 2.39555e+06 1.32211e+07)
(1.19793e+08 628.693 -699.774 1.1765e+08 2.40013e+06 1.32306e+07)
(1.19789e+08 -621.855 -1217.69 1.17649e+08 2.39812e+06 1.32212e+07)
(1.1979e+08 -574.544 -5756.13 1.1765e+08 2.39596e+06 1.32224e+07)
(1.19807e+08 532.994 -2954.14 1.17674e+08 2.38133e+06 1.32519e+07)
(1.1979e+08 915.667 -4193.74 1.17651e+08 2.41816e+06 1.32215e+07)
(1.19798e+08 288.811 -5533.32 1.17668e+08 2.42016e+06 1.32289e+07)
(1.19787e+08 -371.505 -2733.79 1.17644e+08 2.40137e+06 1.32186e+07)
(1.19788e+08 314.563 -8833.36 1.17649e+08 2.39762e+06 1.32191e+07)
(1.19783e+08 1922.27 -11765.5 1.17639e+08 2.4025e+06 1.32149e+07)
(1.19779e+08 119.391 -13494.5 1.17635e+08 2.42778e+06 1.32132e+07)
(1.1976e+08 -4375 -30668.8 1.17643e+08 2.41996e+06 1.32255e+07)
(1.19557e+08 -16416.9 -154939 1.17584e+08 2.36694e+06 1.32078e+07)
(1.17623e+08 -62421.9 -1.06928e+06 1.1667e+08 2.29112e+06 1.20753e+07)
(1.00247e+08 -105148 -5.01658e+06 1.08339e+08 1.96711e+06 2.44909e+06)
(5.5885e+07 -191348 -2.82572e+07 1.01554e+08 2.07468e+06 2.54803e+07)
(5.60904e+07 111906 2.84192e+07 1.02624e+08 1.29907e+06 2.58748e+07)
(1.00618e+08 67200 5.07527e+06 1.09461e+08 1.22679e+06 2.70484e+06)
(1.1813e+08 43648.7 1.09653e+06 1.17956e+08 1.44126e+06 1.24194e+07)
(1.20077e+08 11361.1 160420 1.18884e+08 1.50754e+06 1.35511e+07)
(1.20297e+08 1682.32 29105.8 1.18955e+08 1.51868e+06 1.35942e+07)
(1.20322e+08 549.278 14001.2 1.18963e+08 1.5185e+06 1.35834e+07)
(1.20323e+08 -399.78 10973.7 1.18961e+08 1.52023e+06 1.35806e+07)
(1.20327e+08 -427.716 8726.11 1.18968e+08 1.51617e+06 1.35833e+07)
(1.20327e+08 135.243 6985.3 1.18967e+08 1.51715e+06 1.35834e+07)
(1.20331e+08 -105.357 5936.31 1.1897e+08 1.51945e+06 1.3594e+07)
(1.20328e+08 594.672 3492.21 1.18968e+08 1.51759e+06 1.35866e+07)
(1.20328e+08 755.903 2346.83 1.18968e+08 1.53944e+06 1.3584e+07)
(1.20325e+08 -648.05 2346.75 1.1896e+08 1.52216e+06 1.35828e+07)
(1.20329e+08 -1598.6 1076.5 1.18969e+08 1.51753e+06 1.3587e+07)
(1.20333e+08 19.4733 -44.6865 1.18975e+08 1.4972e+06 1.3593e+07)
(1.20327e+08 932.57 -413.084 1.18966e+08 1.51861e+06 1.3584e+07)
(1.20328e+08 -461.238 -1321.64 1.18969e+08 1.5174e+06 1.35852e+07)
(1.20327e+08 625.083 -6051.36 1.18966e+08 1.51565e+06 1.35843e+07)
(1.20337e+08 7.03339 -2827.38 1.18985e+08 1.53935e+06 1.35942e+07)
(1.20331e+08 126.58 -476.709 1.18971e+08 1.49966e+06 1.35922e+07)
(1.20324e+08 688.93 -5149.04 1.18962e+08 1.54015e+06 1.35791e+07)
(1.20327e+08 -750.154 -6084.61 1.18965e+08 1.51893e+06 1.35849e+07)
(1.20327e+08 223.534 -8735.31 1.18968e+08 1.51698e+06 1.35834e+07)
(1.20324e+08 1114.66 -11207.4 1.18962e+08 1.52011e+06 1.3582e+07)
(1.20318e+08 -44.3747 -13630.1 1.18953e+08 1.52346e+06 1.35806e+07)
(1.20294e+08 -2206.42 -32008.7 1.18954e+08 1.51866e+06 1.35877e+07)
(1.20085e+08 -11994.6 -160534 1.18895e+08 1.52782e+06 1.35625e+07)
(1.18132e+08 -44102.6 -1.09313e+06 1.17957e+08 1.43989e+06 1.24249e+07)
(1.00618e+08 -66529.8 -5.07607e+06 1.09462e+08 1.22544e+06 2.70694e+06)
(5.60907e+07 -112116 -2.842e+07 1.02627e+08 1.30157e+06 2.58745e+07)
(5.62266e+07 64850.5 2.85134e+07 1.03306e+08 790421 2.6129e+07)
(1.00852e+08 42110.2 5.11238e+06 1.10153e+08 762935 2.87072e+06)
(1.1845e+08 29498.6 1.11338e+06 1.18762e+08 901876 1.26416e+07)
(1.20412e+08 7590.17 164322 1.19711e+08 948037 1.3782e+07)
(1.20636e+08 1182.97 29124.7 1.1979e+08 937107 1.38228e+07)
(1.20662e+08 900.12 14306.3 1.19794e+08 955515 1.38156e+07)
(1.20665e+08 -197.089 10768.1 1.19794e+08 956430 1.38142e+07)
(1.20666e+08 -270.094 8470.81 1.19798e+08 954328 1.38147e+07)
(1.20666e+08 51.4046 6766.8 1.19797e+08 955183 1.38144e+07)
(1.20666e+08 -126.161 5721.87 1.19797e+08 956383 1.38148e+07)
(1.20668e+08 174.224 3720.79 1.19798e+08 955076 1.38182e+07)
(1.20664e+08 507.102 2699.3 1.19788e+08 957519 1.3814e+07)
(1.20667e+08 -161.836 2312.93 1.19794e+08 958397 1.38183e+07)
(1.20669e+08 -684.976 -2842.34 1.19799e+08 955537 1.38189e+07)
(1.20677e+08 60.2352 -47.4203 1.19813e+08 953965 1.38284e+07)
(1.20668e+08 335.86 3301.6 1.19798e+08 956648 1.38169e+07)
(1.20668e+08 -751.727 -1446.27 1.19799e+08 955719 1.38176e+07)
(1.20672e+08 1043.54 -2609.23 1.19805e+08 936703 1.38231e+07)
(1.20666e+08 730.241 -6143.43 1.19796e+08 978353 1.38143e+07)
(1.20676e+08 -1075.5 -3718.06 1.19811e+08 955775 1.38288e+07)
(1.20668e+08 21.5681 -1508.61 1.19796e+08 941148 1.38199e+07)
(1.20666e+08 35.9435 -6261.63 1.19795e+08 955463 1.38175e+07)
(1.20666e+08 232.358 -8625.89 1.19798e+08 955204 1.38154e+07)
(1.20665e+08 615.983 -10783.6 1.19795e+08 956632 1.38154e+07)
(1.20661e+08 -173.808 -13663.9 1.1979e+08 958622 1.38163e+07)
(1.20634e+08 -1633.88 -29494.8 1.19785e+08 955615 1.38212e+07)
(1.20414e+08 -8693.84 -164928 1.1971e+08 950425 1.37889e+07)
(1.18451e+08 -29776.5 -1.11346e+06 1.18759e+08 900262 1.2645e+07)
(1.00851e+08 -40802.7 -5.11325e+06 1.10153e+08 761967 2.87083e+06)
(5.62232e+07 -64572.6 -2.85149e+07 1.033e+08 811793 2.61208e+07)
(5.63141e+07 37261.4 2.85651e+07 1.03734e+08 498133 2.6287e+07)
(1.00997e+08 24972.2 5.13983e+06 1.10575e+08 468183 2.97371e+06)
(1.18648e+08 19322.8 1.12478e+06 1.1926e+08 556257 1.27798e+07)
(1.20621e+08 5636.03 163817 1.20226e+08 587520 1.39273e+07)
(1.20852e+08 754.411 29486 1.20315e+08 592136 1.3973e+07)
(1.20873e+08 239.63 17875.7 1.2031e+08 591749 1.39605e+07)
(1.20877e+08 -14.7913 10669 1.20312e+08 592561 1.39599e+07)
(1.20878e+08 -137.714 8317.55 1.20314e+08 591648 1.39596e+07)
(1.20878e+08 101.357 6758.15 1.20314e+08 592457 1.39594e+07)
(1.20878e+08 -184.769 5605.19 1.20314e+08 593578 1.39607e+07)
(1.20879e+08 -437.596 3805.61 1.20313e+08 591659 1.39627e+07)
(1.20882e+08 407.054 2937.99 1.20317e+08 576221 1.39684e+07)
(1.2088e+08 395.241 2222 1.20314e+08 593863 1.39646e+07)
(1.2088e+08 26.8593 336.425 1.20316e+08 592659 1.39639e+07)
(1.2088e+08 65.71 78.4573 1.20314e+08 610069 1.39632e+07)
(1.2088e+08 -154.637 108.922 1.20315e+08 593477 1.3964e+07)
(1.2088e+08 -81.7918 -5061.51 1.20316e+08 593106 1.39641e+07)
(1.20888e+08 586.862 -2408.77 1.2033e+08 592525 1.39729e+07)
(1.20877e+08 521.693 797.604 1.20308e+08 596822 1.396e+07)
(1.2088e+08 -265.005 -7187.9 1.20314e+08 611224 1.39638e+07)
(1.20887e+08 -693.905 -4911.82 1.20326e+08 595266 1.39733e+07)
(1.20877e+08 -334.543 -2957.02 1.2031e+08 591769 1.39617e+07)
(1.20878e+08 321.332 -8475.64 1.20315e+08 592633 1.39609e+07)
(1.20878e+08 304.953 -10577.1 1.20312e+08 592794 1.39612e+07)
(1.20874e+08 -334.253 -13773.5 1.2031e+08 593757 1.3963e+07)
(1.20844e+08 -1363.86 -33513.6 1.203e+08 591531 1.39663e+07)
(1.20631e+08 -6250.67 -168113 1.20239e+08 571385 1.3945e+07)
(1.18654e+08 -19352.6 -1.12158e+06 1.19267e+08 537375 1.27903e+07)
(1.00997e+08 -24029.2 -5.13556e+06 1.10576e+08 467923 2.97417e+06)
(5.63078e+07 -36664.7 -2.85694e+07 1.03718e+08 498039 2.62737e+07)
(5.63601e+07 20905.6 2.85998e+07 1.03971e+08 314652 2.63665e+07)
(1.01085e+08 13928.1 5.14779e+06 1.10829e+08 276020 3.03693e+06)
(1.18769e+08 12007.2 1.13221e+06 1.19561e+08 329721 1.28638e+07)
(1.20747e+08 4016.84 169419 1.20538e+08 349805 1.40158e+07)
(1.20976e+08 194.747 30146.9 1.20618e+08 369725 1.40613e+07)
(1.21001e+08 -160.937 14436.8 1.20622e+08 351432 1.40476e+07)
(1.21006e+08 226.734 10690.2 1.20626e+08 352313 1.40483e+07)
(1.21007e+08 -42.2202 8254.56 1.20628e+08 352105 1.40476e+07)
(1.21007e+08 27.091 6847.04 1.20627e+08 352749 1.40478e+07)
(1.21011e+08 -346.01 5546.66 1.20631e+08 353438 1.40573e+07)
(1.21007e+08 115.227 321.8 1.20625e+08 351667 1.40495e+07)
(1.21017e+08 470.21 3150.25 1.20642e+08 353629 1.40628e+07)
(1.21009e+08 -96.9814 5613.18 1.20629e+08 353494 1.40526e+07)
(1.21009e+08 -577.797 234.717 1.20629e+08 352934 1.40518e+07)
(1.2101e+08 -76.232 189.991 1.20628e+08 335337 1.40543e+07)
(1.21012e+08 489.805 251.441 1.20631e+08 352970 1.40606e+07)
(1.21013e+08 727.687 -1645.16 1.20633e+08 353383 1.40605e+07)
(1.2101e+08 401.449 -2198.71 1.20632e+08 371504 1.40525e+07)
(1.21007e+08 -833.788 -2595.6 1.20625e+08 355615 1.40516e+07)
(1.2101e+08 478.155 -3825.22 1.20629e+08 336294 1.40552e+07)
(1.2101e+08 -422.455 -5015.82 1.20631e+08 373051 1.40545e+07)
(1.21011e+08 -834.08 -6494.91 1.20632e+08 334384 1.40558e+07)
(1.21008e+08 600.82 -8396.11 1.20628e+08 353170 1.40502e+07)
(1.21006e+08 113.075 -10535.6 1.20626e+08 352331 1.40494e+07)
(1.21003e+08 -647.293 -13880.3 1.20626e+08 353060 1.40518e+07)
(1.20978e+08 14.8753 -33884.9 1.20623e+08 334061 1.40613e+07)
(1.20758e+08 -3044.26 -173915 1.20554e+08 368709 1.40313e+07)
(1.1878e+08 -12921.5 -1.12912e+06 1.19578e+08 329176 1.2879e+07)
(1.01086e+08 -14215 -5.14488e+06 1.10829e+08 275827 3.03875e+06)
(5.63593e+07 -20595.2 -2.85981e+07 1.03971e+08 295119 2.6364e+07)
(5.63896e+07 10787.4 2.86172e+07 1.04113e+08 135678 2.64192e+07)
(1.01134e+08 7951.1 5.15523e+06 1.10971e+08 144435 3.07059e+06)
(1.18836e+08 6463.7 1.13669e+06 1.19731e+08 173392 1.29112e+07)
(1.20823e+08 1382.01 171338 1.20718e+08 184277 1.40745e+07)
(1.21044e+08 -333.851 29549.2 1.2079e+08 167436 1.41021e+07)
(1.21079e+08 716.372 14656 1.20809e+08 167456 1.41034e+07)
(1.21079e+08 634.931 10791.9 1.20805e+08 185545 1.40985e+07)
(1.21079e+08 13.2221 8246.47 1.20805e+08 185682 1.40974e+07)
(1.2108e+08 -61.7167 6702.03 1.20805e+08 186126 1.4098e+07)
(1.2108e+08 -689.426 5245.95 1.20805e+08 185678 1.40985e+07)
(1.21084e+08 712.453 3976.94 1.20811e+08 167894 1.4105e+07)
(1.21084e+08 755.918 3368.61 1.20809e+08 204646 1.41053e+07)
(1.21081e+08 -610.497 2116.19 1.20806e+08 186882 1.41027e+07)
(1.21082e+08 -142.202 -3325.86 1.20807e+08 186347 1.41019e+07)
(1.21089e+08 -251.758 -41.4412 1.20818e+08 186030 1.41104e+07)
(1.21081e+08 38.6897 3717.86 1.20805e+08 184684 1.41006e+07)
(1.21081e+08 545.402 -1291.28 1.20806e+08 186148 1.41015e+07)
(1.21079e+08 237.158 -1856.19 1.20801e+08 187400 1.40987e+07)
(1.21085e+08 -81.8517 -5988.18 1.20808e+08 187140 1.41107e+07)
(1.21089e+08 223.668 -3762.87 1.20819e+08 187157 1.41119e+07)
(1.21084e+08 -312.382 -5277.93 1.20805e+08 187958 1.41096e+07)
(1.21088e+08 -410.549 -6633 1.20819e+08 185300 1.41105e+07)
(1.21084e+08 3.10756 -5212.35 1.2081e+08 186335 1.41085e+07)
(1.21078e+08 86.3789 -10575.2 1.20803e+08 185042 1.40985e+07)
(1.21077e+08 1.34219 -17397.6 1.20805e+08 186168 1.41024e+07)
(1.21055e+08 497.694 -30622.8 1.20811e+08 185062 1.41172e+07)
(1.2082e+08 -1232.05 -167981 1.20713e+08 203497 1.40706e+07)
(1.18841e+08 -7682.58 -1.13724e+06 1.19737e+08 191537 1.29175e+07)
(1.01134e+08 -8014.28 -5.15532e+06 1.10969e+08 143389 3.07205e+06)
(5.63884e+07 -10539.5 -2.86174e+07 1.04113e+08 155811 2.64149e+07)
(5.64074e+07 3364.78 2.86218e+07 1.04191e+08 48811.5 2.64516e+07)
(1.01156e+08 2169.24 5.16372e+06 1.11034e+08 44751.5 3.08432e+06)
(1.18867e+08 1924.58 1.13861e+06 1.19807e+08 53943.1 1.29323e+07)
(1.20851e+08 105.988 167560 1.20794e+08 56607.9 1.40881e+07)
(1.21089e+08 248.028 26201 1.20893e+08 40356.1 1.41377e+07)
(1.21117e+08 495.156 18168.9 1.209e+08 57612.3 1.41321e+07)
(1.21112e+08 12.0229 14354.4 1.20886e+08 57430.7 1.41214e+07)
(1.21112e+08 30.5435 8268.66 1.20886e+08 57710.2 1.412e+07)
(1.21113e+08 -21.5302 6615.66 1.20886e+08 57875.7 1.41208e+07)
(1.21113e+08 -45.4745 1678.34 1.20886e+08 57695.2 1.41207e+07)
(1.21122e+08 183.742 4119.77 1.20901e+08 57793.6 1.41334e+07)
(1.21112e+08 -30.2375 7004.05 1.20881e+08 58352.5 1.41231e+07)
(1.21118e+08 -139.207 2085.08 1.20889e+08 57867.4 1.41335e+07)
(1.21115e+08 439.978 -65.9051 1.20888e+08 58139.2 1.41243e+07)
(1.21115e+08 -367.788 -284.889 1.20886e+08 75444.9 1.41244e+07)
(1.21112e+08 -441.465 396.394 1.20883e+08 56471.9 1.41204e+07)
(1.21118e+08 435.443 -952.363 1.2089e+08 57949.1 1.41317e+07)
(1.21113e+08 143.171 -1938.06 1.20884e+08 58476.2 1.41228e+07)
(1.21114e+08 643.551 -2629.95 1.20886e+08 57653.6 1.41239e+07)
(1.21116e+08 81.7595 -3663.08 1.2089e+08 76515.9 1.41274e+07)
(1.21113e+08 -357.375 -5313.01 1.20885e+08 58571.2 1.41241e+07)
(1.21114e+08 -180.45 -6732.69 1.20886e+08 75115.5 1.41242e+07)
(1.21113e+08 -591.808 -8355.06 1.20887e+08 57592.6 1.41225e+07)
(1.2111e+08 76.3949 -10398.7 1.20882e+08 56620.5 1.41198e+07)
(1.2111e+08 653.701 -13963.8 1.20886e+08 57830 1.41259e+07)
(1.21081e+08 106.358 -30635.2 1.20877e+08 75081 1.41311e+07)
(1.20849e+08 -720.145 -171877 1.20786e+08 58094 1.40888e+07)
(1.18867e+08 -3057.77 -1.1398e+06 1.19805e+08 55110.3 1.29342e+07)
(1.01155e+08 -2713.58 -5.1585e+06 1.11029e+08 43115.4 3.08531e+06)