/*--------------------------------*- C++ -*----------------------------------*\
| =========                 |                                                 |
| \\      /  F ield         | OpenFOAM: The Open Source CFD Toolbox           |
|  \\    /   O peration     | Version:  2106                                  |
|   \\  /    A nd           | Website:  www.openfoam.com                      |
|    \\/     M anipulation  |                                                 |
\*---------------------------------------------------------------------------*/
FoamFile
{
    version     2.0;
    format      ascii;
    arch        "LSB;label=32;scalar=64";
    class       volTensorField;
    location    "817";
    object      testEpsilon;
}
// * * * * * * * * * * * * * * * * * * * * * * * * * * * * * * * * * * * * * //

dimensions      [0 0 0 0 0 0 0];

internalField   nonuniform List<tensor> 
9000
(
(-0.0855806 0.00384532 -0.105451 -0.00437231 -0.147116 -0.257496 0.201775 0.380309 -0.0253739)
(-0.0167732 0.00368756 -0.00285513 -0.0026119 -0.156475 -0.270369 0.0216226 0.400625 -0.0697521)
(-0.00192932 0.00248203 0.00204128 -0.00181053 -0.166385 -0.287059 0.00308991 0.425372 -0.0595168)
(-0.000321084 0.000467159 0.000324709 -0.000365891 -0.167997 -0.29083 0.00057826 0.43092 -0.057395)
(-5.53372e-05 -3.88298e-05 -2.84143e-05 2.29323e-05 -0.168079 -0.290942 0.000107628 0.431085 -0.0574074)
(-3.87409e-06 -2.32561e-05 -1.51638e-05 1.91393e-05 -0.167896 -0.290163 5.02152e-05 0.429883 -0.0576818)
(-1.30027e-06 -1.31352e-06 -3.07283e-07 1.24057e-06 -0.168021 -0.29072 5.11689e-05 0.430766 -0.0575672)
(6.10011e-08 -3.10634e-05 -1.88311e-05 1.92296e-05 -0.167889 -0.29015 3.42468e-05 0.429872 -0.0576822)
(-9.16751e-07 3.98678e-05 2.5418e-05 -2.69668e-05 -0.167887 -0.290141 3.71236e-05 0.429856 -0.0576896)
(-6.55215e-06 1.73853e-05 8.75457e-06 -4.12702e-06 -0.168061 -0.290828 -2.36563e-05 0.430919 -0.0574713)
(2.42434e-06 -6.45606e-05 -4.46352e-05 5.20297e-05 -0.167943 -0.290389 -5.34304e-05 0.430244 -0.0575983)
(7.85685e-06 1.75588e-05 1.3767e-05 -1.86375e-05 -0.167761 -0.289678 6.57239e-05 0.429153 -0.0578379)
(-4.59347e-06 6.00752e-05 4.13546e-05 -4.91713e-05 -0.16805 -0.290775 7.6514e-05 0.430841 -0.0574994)
(-4.35821e-06 -1.20331e-05 -1.08392e-05 1.36907e-05 -0.168067 -0.290781 -4.95299e-05 0.430865 -0.057488)
(3.42388e-06 6.12683e-06 3.96577e-06 -4.40115e-06 -0.167955 -0.290435 -2.52818e-07 0.430308 -0.0575822)
(-2.63362e-06 1.29563e-05 1.08306e-05 -1.53296e-05 -0.168063 -0.290838 5.01135e-05 0.430932 -0.0574731)
(-2.17042e-06 -1.8511e-05 -1.44492e-05 1.91889e-05 -0.168065 -0.290777 -5.82e-05 0.430859 -0.0574929)
(3.02453e-09 1.45517e-06 1.53671e-06 5.7798e-08 -0.167958 -0.290445 -7.79615e-06 0.430323 -0.0575734)
(-2.16805e-06 -4.47234e-05 -2.82007e-05 3.13941e-05 -0.168052 -0.290796 -2.14236e-05 0.430873 -0.0574875)
(4.65404e-06 -4.11094e-05 -2.6566e-05 2.83608e-05 -0.167773 -0.289723 -2.67584e-05 0.429217 -0.0578019)
(2.7653e-06 5.96397e-05 4.0548e-05 -4.79993e-05 -0.167874 -0.290095 3.88763e-05 0.429796 -0.0577149)
(-5.68265e-06 4.60687e-05 2.95579e-05 -3.29919e-05 -0.16806 -0.290812 -1.5958e-05 0.43089 -0.0574856)
(-3.47548e-06 -3.46244e-05 -2.19803e-05 2.28666e-05 -0.168065 -0.290843 -4.20209e-05 0.430939 -0.0574677)
(1.15937e-07 -7.12231e-06 -4.13527e-06 5.50245e-06 -0.167901 -0.290181 -4.88114e-05 0.429912 -0.0576683)
(-7.74682e-06 1.21174e-05 6.88744e-06 -8.79904e-06 -0.168052 -0.290784 -5.5082e-05 0.430851 -0.0574945)
(-5.38731e-05 -2.20884e-05 -1.34179e-05 2.59692e-05 -0.167912 -0.290279 -0.000172701 0.43006 -0.0576043)
(-0.000314519 -0.000438657 -0.000306282 0.000347282 -0.167867 -0.29035 -0.000573384 0.43019 -0.0575378)
(-0.00192992 -0.0024548 -0.00202178 0.00178374 -0.166381 -0.286976 -0.00303396 0.425266 -0.0595434)
(-0.016776 -0.00367966 0.0028603 0.0026059 -0.156473 -0.270362 -0.0216244 0.400617 -0.0697536)
(-0.0855799 -0.00384727 0.105452 0.00437411 -0.147115 -0.257483 -0.201778 0.380287 -0.0253795)
(-0.0724034 0.0018954 -0.10317 -0.00191792 -0.0980714 -0.0790745 0.196128 0.215439 -0.128991)
(-0.0163973 0.00216334 -0.00426106 -0.000798259 -0.103197 -0.0826093 0.0203103 0.226105 -0.175005)
(-0.00180222 0.00153324 0.000977711 -0.000667876 -0.109234 -0.0876369 0.00210681 0.240105 -0.17132)
(-0.000206429 0.00031595 0.000119156 -0.000174018 -0.1104 -0.08883 0.000339472 0.243614 -0.170637)
(-2.73468e-05 -1.72351e-05 1.20149e-06 4.59157e-06 -0.110423 -0.0888676 6.31361e-05 0.243717 -0.170683)
(-4.45735e-06 -1.66083e-05 -2.59178e-06 1.00754e-05 -0.110202 -0.0886816 6.49597e-05 0.243398 -0.170699)
(-2.06446e-06 3.26924e-07 1.22446e-06 6.861e-07 -0.11037 -0.0887945 5.02679e-05 0.243533 -0.17071)
(-1.46284e-06 -1.00496e-05 5.91713e-06 6.62081e-06 -0.110179 -0.0886802 -1.13226e-05 0.243406 -0.170696)
(-7.43154e-07 1.50795e-05 -5.58192e-06 -1.09537e-05 -0.11018 -0.0886788 7.40013e-05 0.24339 -0.170702)
(-1.19606e-06 1.07088e-05 -1.97526e-06 3.73673e-06 -0.110394 -0.08883 6.96812e-05 0.243594 -0.170707)
(-4.60258e-07 -2.10971e-05 8.82822e-06 2.77431e-05 -0.110296 -0.0887373 -3.17023e-05 0.243851 -0.170677)
(8.08128e-08 3.85826e-07 -3.77873e-06 -1.21566e-05 -0.110076 -0.0885738 1.24946e-05 0.243617 -0.170667)
(-1.08718e-06 1.47393e-05 -7.98339e-06 -2.8713e-05 -0.110393 -0.0888017 5.55386e-05 0.243531 -0.17071)
(-7.99348e-07 3.53062e-06 3.85886e-06 9.08734e-06 -0.11037 -0.0888006 -2.58032e-07 0.243259 -0.170691)
(1.1887e-07 7.62461e-06 -7.72886e-07 -1.1969e-07 -0.110309 -0.0887534 -2.15712e-06 0.243894 -0.17068)
(-3.79451e-07 -5.27268e-06 -2.48387e-06 -1.27568e-05 -0.110397 -0.0888342 -1.6603e-06 0.243607 -0.170711)
(-2.43235e-07 -2.09307e-06 3.29384e-06 1.24239e-05 -0.110368 -0.0887998 -4.96451e-06 0.243257 -0.170693)
(-1.7736e-07 4.31038e-06 -9.07062e-07 3.30025e-06 -0.110313 -0.0887566 -6.07382e-06 0.2439 -0.170676)
(-7.63937e-07 -1.81952e-05 5.5234e-06 1.3896e-05 -0.110384 -0.0888175 -5.48335e-05 0.243562 -0.170711)
(-7.87738e-07 -1.58972e-05 6.05334e-06 1.20535e-05 -0.110083 -0.0885904 -6.19377e-05 0.243675 -0.170666)
(-7.86996e-07 1.66321e-05 -9.95516e-06 -2.49424e-05 -0.110164 -0.0886583 1.93702e-05 0.243345 -0.170691)
(-9.36382e-07 1.92581e-05 -5.85899e-06 -1.54111e-05 -0.110405 -0.0888197 1.58033e-05 0.243564 -0.170713)
(-1.09674e-06 -1.10756e-05 6.48647e-06 8.90601e-06 -0.110397 -0.0888354 -8.16584e-05 0.24361 -0.170708)
(-1.5444e-06 -6.12793e-06 -1.2111e-06 2.65048e-06 -0.110196 -0.0886949 -4.44983e-05 0.243426 -0.170693)
(-5.14667e-06 1.02629e-05 2.10437e-06 -3.4203e-06 -0.110398 -0.0888115 -5.99463e-05 0.243536 -0.17071)
(-2.77082e-05 -1.53638e-06 7.44228e-06 2.13965e-05 -0.110214 -0.0887216 -0.000108814 0.243538 -0.170668)
(-0.000206188 -0.000311835 -0.000124866 0.000164912 -0.110289 -0.0887213 -0.000293034 0.243831 -0.170606)
(-0.00180235 -0.00152544 -0.000980842 0.000650133 -0.109198 -0.0875937 -0.00210759 0.239741 -0.171319)
(-0.0163973 -0.00215524 0.00426071 0.000796838 -0.103195 -0.0826061 -0.0203151 0.226098 -0.175003)
(-0.0724022 -0.00189792 0.103171 0.00192039 -0.098075 -0.079074 -0.196129 0.215418 -0.128992)
(-0.0763046 -0.001078 -0.104036 0.00342346 -0.0575536 -0.00938264 0.197527 0.125712 -0.153406)
(-0.0165232 0.00145506 -0.00456762 0.000287853 -0.0602169 -0.0111291 0.0202964 0.132422 -0.201966)
(-0.00180447 0.00104128 0.000797136 -2.22442e-06 -0.0633661 -0.0116301 0.00193809 0.141065 -0.199928)
(-0.00018659 0.000229415 7.85704e-05 -3.29563e-05 -0.0641022 -0.011795 0.000259528 0.143584 -0.199627)
(-1.85185e-05 7.44844e-07 1.26727e-06 -2.5092e-06 -0.0641042 -0.0118059 0.000110505 0.143681 -0.199687)
(-4.65519e-06 -1.26346e-05 -5.3843e-07 2.31684e-06 -0.0639984 -0.0118167 6.97574e-05 0.143911 -0.199648)
(-1.99118e-06 3.47029e-06 -1.25306e-08 8.89582e-07 -0.0640744 -0.0117936 4.9756e-05 0.143546 -0.199696)
(-2.26697e-06 6.92123e-06 4.31483e-06 2.04e-06 -0.0639919 -0.0118335 3.9693e-05 0.144122 -0.199667)
(-1.49357e-06 -3.28623e-06 -4.53937e-06 -2.43578e-06 -0.0640003 -0.0118255 2.03918e-05 0.1441 -0.199671)
(1.18721e-06 -5.955e-06 -2.94464e-06 3.93314e-07 -0.0640766 -0.0117965 2.15987e-05 0.143591 -0.199701)
(-7.54333e-07 -8.36838e-07 6.601e-06 7.27525e-06 -0.064065 -0.011813 3.04612e-05 0.143557 -0.199687)
(-3.43437e-06 -1.73127e-06 8.86396e-07 -3.66813e-06 -0.0639771 -0.0118413 8.65465e-06 0.144078 -0.199649)
(-3.44675e-07 1.24252e-06 -4.00277e-06 -8.12607e-06 -0.0640561 -0.0117851 -3.5854e-05 0.143359 -0.199657)
(1.36045e-06 4.79881e-06 -1.18922e-06 2.89417e-06 -0.0640079 -0.0117994 2.37244e-06 0.1436 -0.199683)
(-9.4496e-07 6.37397e-07 -2.75869e-06 4.07244e-07 -0.06407 -0.0118126 2.69004e-05 0.143589 -0.199691)
(-1.249e-07 1.02484e-06 1.55182e-06 -3.15673e-06 -0.0640783 -0.0117989 -3.56103e-05 0.143605 -0.199703)
(1.041e-06 -1.63378e-06 1.07505e-06 2.55963e-06 -0.0640076 -0.0118003 -7.42249e-07 0.143598 -0.199686)
(2.97429e-07 -1.70527e-06 -1.99511e-06 2.27462e-06 -0.0640721 -0.0118128 2.50451e-05 0.143588 -0.199691)
(-4.17401e-07 1.18039e-06 5.02179e-06 3.48851e-06 -0.0640704 -0.0117906 5.59056e-07 0.143566 -0.1997)
(-3.11364e-06 2.95132e-06 5.26956e-06 2.65704e-06 -0.0639811 -0.011847 -7.11802e-06 0.144094 -0.199653)
(-2.72762e-06 -4.65665e-06 -5.29942e-06 -6.38032e-06 -0.0639824 -0.0118286 -3.75747e-05 0.144105 -0.199657)
(1.08705e-06 -5.60334e-07 -5.85529e-06 -4.52635e-06 -0.0640674 -0.0117854 -4.08386e-05 0.143378 -0.199683)
(1.36835e-07 7.15986e-06 2.98336e-06 3.04116e-06 -0.0640769 -0.0117985 -2.8865e-05 0.143607 -0.199703)
(-2.34932e-06 -7.32959e-06 6.41183e-07 -6.10534e-07 -0.0640111 -0.0118322 -4.25276e-05 0.144121 -0.199667)
(-3.99761e-06 8.472e-06 1.54668e-06 -3.84085e-07 -0.0640717 -0.0117828 -6.0953e-05 0.143356 -0.199676)
(-2.02067e-05 -2.63685e-07 4.62752e-06 9.53056e-06 -0.064024 -0.0118382 -9.63423e-05 0.144209 -0.19965)
(-0.000188772 -0.000235345 -8.06987e-05 3.06163e-05 -0.0640793 -0.0118068 -0.00029632 0.143521 -0.199609)
(-0.00180353 -0.001036 -0.000798752 -2.51626e-06 -0.063293 -0.0116222 -0.00195014 0.141018 -0.199916)
(-0.0165219 -0.00145515 0.00456424 -0.000288835 -0.0602148 -0.0111279 -0.020272 0.132417 -0.201963)
(-0.0763018 0.00107331 0.104033 -0.00341834 -0.0575628 -0.00937921 -0.197524 0.125683 -0.153407)
(-0.0818777 -0.0028224 -0.107651 0.00645329 -0.0351663 0.00543964 0.204388 0.0763772 -0.154295)
(-0.0170824 0.00100084 -0.00471055 0.000759696 -0.0372327 0.00345646 0.0209847 0.0810763 -0.205378)
(-0.00186638 0.000756168 0.000844534 0.000233764 -0.0391077 0.00393203 0.00213007 0.0872843 -0.203493)
(-0.000206486 0.000168322 8.39894e-05 3.25996e-05 -0.0396307 0.00401791 0.000295292 0.0889555 -0.203202)
(-2.02922e-05 3.53186e-06 -3.13316e-06 -5.05993e-06 -0.03964 0.00401801 8.52541e-05 0.0890483 -0.203268)
(-3.77759e-06 -1.06399e-05 -1.24642e-07 -2.87728e-06 -0.0395808 0.00398835 7.04408e-05 0.0888712 -0.203236)
(-2.11983e-06 1.6193e-06 -2.14185e-06 9.09624e-07 -0.0396051 0.00401561 6.88216e-05 0.0888191 -0.203264)
(-2.12791e-06 4.75279e-06 -4.62266e-07 -1.67713e-06 -0.0396222 0.00398592 3.84108e-05 0.0890174 -0.203286)
(-1.07249e-06 -1.85707e-06 1.82549e-06 2.84806e-06 -0.0396165 0.00399153 2.31511e-05 0.0888646 -0.203249)
(7.46147e-07 -2.22832e-06 5.27753e-07 2.89128e-06 -0.0396145 0.0040164 2.29109e-05 0.088986 -0.20328)
(-1.27255e-06 -1.18924e-06 -1.40524e-07 -2.79191e-06 -0.0396095 0.004011 2.96657e-05 0.0889645 -0.203277)
(-2.99945e-06 2.17204e-06 1.79738e-06 -6.67356e-07 -0.039614 0.00398055 -1.08139e-05 0.0889773 -0.203254)
(2.25285e-07 8.56369e-06 3.89345e-07 3.32903e-06 -0.0395688 0.00400159 -7.48814e-06 0.0890023 -0.20326)
(9.07314e-07 7.46844e-07 -1.64459e-06 1.32418e-06 -0.0395899 0.00399303 2.25521e-05 0.0893404 -0.203286)
(-1.09131e-06 -6.45304e-06 -6.55761e-07 -5.00069e-07 -0.0396073 0.00401096 -8.35124e-07 0.0889929 -0.203279)
(5.10253e-08 7.2094e-06 -2.7678e-08 9.9279e-07 -0.0396158 0.00401346 -7.62796e-06 0.0890016 -0.203284)
(8.43034e-07 -8.56751e-07 4.96295e-07 -3.56544e-07 -0.0395907 0.00399297 -1.00204e-06 0.0893379 -0.203289)
(8.41748e-09 -8.24444e-06 1.0282e-06 -2.20142e-07 -0.0396076 0.0040108 -1.63974e-06 0.0889924 -0.20328)
(-6.87452e-07 2.0317e-08 -1.31763e-06 -3.15213e-06 -0.0396114 0.00401892 -1.61807e-06 0.0889652 -0.203258)
(-2.76151e-06 1.70097e-06 -1.52984e-06 -3.19902e-06 -0.0396158 0.00398028 -9.9594e-06 0.0889994 -0.20328)
(-2.22367e-06 -6.35379e-07 2.37107e-06 2.87686e-06 -0.0396177 0.00398457 -5.49935e-05 0.0889983 -0.203261)
(9.47914e-07 3.63663e-07 1.51106e-07 2.79702e-06 -0.0395797 0.00401271 -3.97434e-05 0.0889795 -0.203252)
(-3.13581e-07 1.92242e-07 -2.8702e-06 -2.70365e-06 -0.0396121 0.00401452 -1.07611e-05 0.0890058 -0.203284)
(-2.22945e-06 -5.0933e-06 1.93783e-06 -2.58195e-06 -0.0396215 0.0039913 -6.2594e-05 0.0888733 -0.20327)
(-3.11845e-06 7.6862e-06 9.07163e-07 2.03396e-06 -0.0395743 0.00401281 -6.12439e-05 0.0888272 -0.203228)
(-2.15081e-05 -3.04959e-06 2.64376e-06 3.43344e-06 -0.0396476 0.00398905 -7.20034e-05 0.0890745 -0.203264)
(-0.000208597 -0.000165636 -8.16695e-05 -2.97638e-05 -0.0396171 0.00401103 -0.000300867 0.0889112 -0.203192)
(-0.00186624 -0.000752543 -0.00084507 -0.0002325 -0.0390838 0.00391272 -0.00214467 0.0875883 -0.203466)
(-0.0170804 -0.00100922 0.0047093 -0.000762023 -0.0372312 0.00345675 -0.0209907 0.0810731 -0.205375)
(-0.0818819 0.00281388 0.107647 -0.00644337 -0.0351568 0.00544511 -0.20438 0.0762182 -0.154281)
(-0.0860582 -0.00311438 -0.112076 0.00667128 -0.0220578 0.00482866 0.212814 0.0479386 -0.152289)
(-0.0177671 0.000666768 -0.00486914 0.000874756 -0.023578 0.00285457 0.0219709 0.0506923 -0.205729)
(-0.00194989 0.000561675 0.000909426 0.000263327 -0.0249318 0.00331625 0.00240769 0.0554667 -0.203766)
(-0.000234355 0.000122959 9.57658e-05 4.96814e-05 -0.0252869 0.0034042 0.000324341 0.0565169 -0.203434)
(-2.56138e-05 1.07262e-05 -4.64519e-06 6.21543e-08 -0.025288 0.00340689 8.48987e-05 0.0564944 -0.203495)
(-3.46127e-06 -5.64801e-06 -1.01852e-06 -3.81561e-06 -0.0252438 0.0033891 4.8487e-05 0.0568009 -0.203526)
(-1.75115e-06 -4.79933e-06 -4.99354e-07 -8.80282e-07 -0.0252444 0.00339959 6.49185e-05 0.0564364 -0.203504)
(-1.87928e-06 4.64047e-06 -5.00453e-07 -1.78935e-07 -0.025282 0.00340776 3.61616e-05 0.0565777 -0.203529)
(-5.79884e-07 -1.75005e-06 1.55779e-06 1.42763e-06 -0.0252557 0.00339975 2.58938e-05 0.0565882 -0.203517)
(5.92201e-08 -4.55855e-06 9.49468e-07 1.40916e-07 -0.0252848 0.00340233 4.14025e-05 0.0565623 -0.203503)
(-1.46606e-06 -7.34993e-07 -5.70119e-07 -3.40997e-06 -0.0252666 0.00340187 2.52546e-05 0.0564411 -0.203507)
(-2.21018e-06 6.39714e-06 -9.96458e-07 1.53871e-06 -0.0252823 0.00340501 8.36395e-06 0.05656 -0.203512)
(5.3632e-08 6.06449e-06 -1.50663e-06 3.77748e-06 -0.0252721 0.0033847 -3.65237e-06 0.0567754 -0.203531)
(5.94633e-07 -2.90138e-06 6.85121e-07 4.72136e-07 -0.0252993 0.00339564 3.89207e-06 0.0566204 -0.203527)
(-1.01124e-06 -4.54933e-06 1.32754e-06 2.66582e-07 -0.0252769 0.00340165 2.46975e-07 0.0565701 -0.203521)
(-9.61952e-08 4.36324e-06 -2.04536e-06 7.22377e-07 -0.0252873 0.00340354 -7.03271e-06 0.056571 -0.203522)
(7.98411e-07 6.87376e-09 5.42494e-07 -6.68547e-07 -0.0252999 0.00339648 -2.3327e-06 0.056617 -0.203529)
(-2.61689e-07 -5.84683e-06 3.19493e-06 -1.04998e-06 -0.0252765 0.00340111 -1.19716e-06 0.0565701 -0.203522)
(-1.01318e-06 -4.60841e-07 -1.08164e-06 -2.9758e-06 -0.0252843 0.0034011 -5.76204e-06 0.0565602 -0.203493)
(-1.90784e-06 1.69267e-06 -1.6008e-06 -1.90044e-06 -0.0252812 0.00340468 -1.37454e-05 0.0565654 -0.203524)
(-1.52841e-06 2.56101e-06 1.18664e-06 2.93454e-06 -0.0252817 0.00340451 -3.04634e-05 0.056577 -0.203519)
(-2.90573e-08 5.41857e-07 1.34055e-07 3.22361e-06 -0.0252599 0.00338796 -3.50174e-05 0.056674 -0.203519)
(-9.3896e-07 -1.18646e-06 -1.29949e-06 -1.1055e-06 -0.0252785 0.0034015 -4.92022e-05 0.0565799 -0.203525)
(-1.4018e-06 2.49034e-07 2.99719e-07 -2.23883e-06 -0.0252632 0.00340891 -6.08618e-05 0.0565708 -0.203518)
(-2.79453e-06 3.25177e-06 1.09727e-06 1.73568e-06 -0.0252399 0.00338231 -4.12606e-05 0.0566629 -0.203506)
(-2.65662e-05 -8.82832e-06 4.27203e-06 -7.74735e-07 -0.0253027 0.00340868 -7.48067e-05 0.0566112 -0.203503)
(-0.000235959 -0.000122587 -9.5964e-05 -5.02839e-05 -0.0252853 0.00340698 -0.000328071 0.0564784 -0.203423)
(-0.00194998 -0.00055883 -0.000909609 -0.000260419 -0.0249488 0.00330312 -0.00241663 0.0555075 -0.203761)
(-0.0177641 -0.000669758 0.00487072 -0.000874004 -0.0235773 0.00285508 -0.0219976 0.0506887 -0.205727)
(-0.0860651 0.00310935 0.112052 -0.00666231 -0.0220259 0.00482594 -0.212764 0.0479217 -0.152279)
(-0.0887427 -0.00259483 -0.115937 0.00539146 -0.0139502 0.00256122 0.220171 0.0303721 -0.151262)
(-0.018364 0.00042605 -0.00501303 0.000792336 -0.0148824 0.000987807 0.0229173 0.031768 -0.206543)
(-0.00203139 0.000414375 0.000954459 0.00022544 -0.0159393 0.00130451 0.00266782 0.0350666 -0.20448)
(-0.000259139 9.70775e-05 0.000102118 5.03889e-05 -0.0161925 0.00135438 0.000363695 0.0360742 -0.204176)
(-3.09916e-05 1.21536e-05 -6.15248e-06 3.60527e-06 -0.0161812 0.00135534 0.00010206 0.0361549 -0.204246)
(-3.96608e-06 -1.91388e-06 -1.5849e-06 -3.09516e-06 -0.0161987 0.00134837 6.12131e-05 0.0363206 -0.204285)
(-1.39249e-06 -6.00446e-06 1.58985e-06 -1.72134e-06 -0.0161535 0.00134639 4.77553e-05 0.0361744 -0.204265)
(-1.66633e-06 2.4861e-06 -4.31186e-07 5.70836e-07 -0.0161935 0.00135804 4.99423e-05 0.0361383 -0.204273)
(-1.00852e-06 -2.42485e-06 7.38243e-07 -9.25199e-07 -0.016186 0.00134962 2.65741e-05 0.0362886 -0.204284)
(-2.21375e-07 -4.40134e-06 9.51601e-07 -1.346e-06 -0.016186 0.00134889 9.99235e-06 0.0360441 -0.204259)
(-9.92988e-07 -6.8707e-07 3.96832e-07 -2.60033e-06 -0.0161652 0.00134896 2.17917e-05 0.0361244 -0.204263)
(-1.56196e-06 1.05994e-06 -1.63562e-06 -7.93933e-07 -0.0161877 0.00135247 2.36256e-05 0.0360359 -0.204236)
(1.19701e-08 5.15341e-06 -1.48476e-06 4.52538e-06 -0.0162055 0.00135133 2.94368e-07 0.0360596 -0.204261)
(2.05134e-07 -2.13645e-07 1.74522e-06 1.92911e-06 -0.0162058 0.00136081 5.22717e-06 0.0361608 -0.204271)
(-1.04126e-06 -4.03951e-06 9.24842e-07 -1.04878e-06 -0.0161923 0.00135305 9.61354e-07 0.0361327 -0.204267)
(-1.36001e-07 2.61454e-06 -1.06215e-06 1.10208e-06 -0.0161898 0.00135389 -6.43354e-06 0.0360389 -0.204257)
(4.88563e-07 1.28688e-06 9.89271e-09 3.39476e-07 -0.0162058 0.00136156 -3.13832e-06 0.0361569 -0.204273)
(-4.53034e-07 -5.12896e-06 1.95345e-06 -3.3829e-06 -0.0161917 0.00135282 -2.86873e-06 0.0361344 -0.204269)
(-8.57544e-07 -9.10418e-07 -6.04351e-07 -2.06569e-06 -0.0161893 0.00134374 -8.50662e-06 0.0360448 -0.204237)
(-1.57944e-06 2.23333e-06 -8.48664e-07 4.51524e-07 -0.0161983 0.00135825 -1.457e-05 0.0361259 -0.204268)
(-1.19886e-06 3.6255e-06 -9.72725e-07 2.29996e-06 -0.0162013 0.00135643 -4.27749e-05 0.0361337 -0.204248)
(1.39907e-07 9.90438e-07 -4.51763e-07 2.78663e-06 -0.0161824 0.00134609 -3.20052e-05 0.0361637 -0.204271)
(-1.40607e-06 -4.76433e-07 1.32052e-06 -3.38526e-07 -0.0161923 0.00135264 -1.78811e-05 0.036141 -0.204273)
(-1.66121e-06 2.64518e-06 -1.89951e-06 -1.29554e-06 -0.0161834 0.00135227 -6.10754e-05 0.0361923 -0.204252)
(-2.82563e-06 -2.06132e-07 8.61005e-07 1.06077e-06 -0.0161746 0.00134035 -5.62537e-05 0.0362084 -0.204266)
(-3.19121e-05 -1.21334e-05 7.57804e-06 -4.40665e-06 -0.0162119 0.00135989 -7.88266e-05 0.0361534 -0.204246)
(-0.000260526 -9.48567e-05 -0.000102782 -4.9902e-05 -0.0161881 0.00135453 -0.000385463 0.0359563 -0.204135)
(-0.00203099 -0.000410949 -0.00095545 -0.000222297 -0.0159478 0.00130987 -0.00267131 0.035079 -0.204496)
(-0.0183608 -0.000424632 0.00501387 -0.000790851 -0.0148822 0.000989354 -0.0229232 0.0317636 -0.20654)
(-0.0887418 0.00259832 0.115909 -0.00539306 -0.0139377 0.00255403 -0.220116 0.0305101 -0.151266)
(-0.0903999 -0.00185956 -0.118768 0.00378943 -0.00882054 0.00124344 0.22557 0.0192339 -0.150983)
(-0.0188003 0.000268942 -0.00512048 0.000627581 -0.00929853 0.000148323 0.0236863 0.0198345 -0.207535)
(-0.00209828 0.00029965 0.000982741 0.000176095 -0.0101 0.000350349 0.00286929 0.0222767 -0.20547)
(-0.000278722 7.4591e-05 0.000105932 4.2016e-05 -0.0103125 0.000378351 0.000441728 0.0229576 -0.205148)
(-3.63107e-05 9.48462e-06 -5.84803e-06 4.10707e-06 -0.01032 0.000378041 0.000107513 0.0231455 -0.205217)
(-4.5266e-06 -1.15994e-07 -2.80877e-06 -1.88337e-06 -0.0103372 0.00038491 4.42895e-05 0.0230536 -0.205249)
(-1.01795e-06 -3.76995e-06 1.4345e-06 -1.62387e-06 -0.0103011 0.0003722 4.74863e-05 0.0231446 -0.205235)
(-1.72005e-06 -1.86057e-06 1.46617e-07 -9.13488e-07 -0.0103185 0.000379029 4.8503e-05 0.0230179 -0.205248)
(-9.63251e-07 -2.39122e-07 -2.71688e-07 -2.76062e-07 -0.0103281 0.000379415 1.19962e-05 0.0230343 -0.20525)
(-2.75807e-07 -3.98945e-07 8.17152e-07 -7.03724e-09 -0.0102966 0.000374186 2.42341e-05 0.0230184 -0.205245)
(-1.35565e-06 -1.08661e-06 1.47071e-07 -2.4598e-06 -0.0103066 0.000373575 1.91593e-05 0.0231267 -0.205253)
(-7.8504e-07 -1.64835e-06 -5.23089e-07 -1.86411e-06 -0.0103018 0.000371763 -5.88385e-06 0.0230162 -0.205236)
(5.98241e-07 2.45881e-06 1.61355e-07 3.30951e-06 -0.0103026 0.000380279 1.80326e-05 0.022944 -0.205231)
(-5.20199e-07 -2.66874e-07 1.02909e-06 1.31659e-06 -0.0103253 0.000381769 2.04621e-05 0.0230313 -0.205244)
(-1.17664e-06 -1.36353e-06 -5.65522e-08 -4.41452e-07 -0.0103181 0.0003765 -1.33669e-05 0.0230132 -0.205243)
(1.81456e-07 1.65837e-06 -3.43873e-07 1.22655e-06 -0.0102996 0.000375954 -5.24409e-06 0.023015 -0.205239)
(-9.85843e-08 -3.66065e-07 3.27888e-07 -4.09383e-07 -0.0103252 0.000381845 1.06577e-05 0.0230284 -0.205245)
(-7.42723e-07 -2.54392e-06 -3.68668e-07 -2.86764e-06 -0.0103175 0.000377162 -1.96727e-05 0.0230141 -0.205244)
(-2.46292e-07 -1.78137e-06 3.25078e-09 -2.08795e-06 -0.0103035 0.000368068 -1.01013e-05 0.0230187 -0.205241)
(-1.03471e-06 -7.15151e-07 9.38257e-07 -1.02315e-06 -0.010314 0.000377644 -4.09689e-07 0.0229264 -0.205234)
(-1.06139e-06 5.74912e-06 -1.24362e-06 3.87747e-06 -0.0103209 0.000373755 -2.59109e-05 0.0229415 -0.205217)
(-5.56755e-07 2.33883e-06 -6.25718e-07 3.6546e-06 -0.0103185 0.00037972 -2.92245e-05 0.0231485 -0.205258)
(-1.7554e-06 -1.38559e-06 -6.37304e-08 -1.25239e-06 -0.0103177 0.000377368 -4.73827e-05 0.0230203 -0.205249)
(-1.12194e-06 3.79412e-06 -2.15684e-06 2.56485e-07 -0.0103102 0.000373231 -6.06279e-05 0.0230426 -0.205242)
(-3.41675e-06 -2.45779e-06 2.61975e-06 -2.69901e-07 -0.0103056 0.000377009 -4.08153e-05 0.0230775 -0.205241)
(-3.67588e-05 -1.15216e-05 7.10739e-06 -6.08726e-06 -0.0103222 0.000379161 -9.88084e-05 0.0229417 -0.20521)
(-0.000279537 -6.97648e-05 -0.000105968 -3.85175e-05 -0.0103006 0.000369689 -0.000446885 0.0229488 -0.205114)
(-0.00209817 -0.000297645 -0.000982644 -0.000173879 -0.0101054 0.000357489 -0.00286131 0.0222765 -0.205465)
(-0.0187983 -0.000267737 0.00511955 -0.00062786 -0.00929967 0.000151442 -0.023691 0.0198272 -0.207529)
(-0.0903952 0.00186601 0.118753 -0.00379848 -0.00882743 0.00124163 -0.225545 0.0192593 -0.150987)
(-0.0914187 -0.00121563 -0.120639 0.0024418 -0.00556868 0.000652365 0.22914 0.0121464 -0.150958)
(-0.0190866 0.000170166 -0.00519165 0.000452333 -0.00576947 -5.1729e-05 0.024283 0.0123488 -0.208326)
(-0.00214851 0.000211572 0.00100046 0.000132999 -0.00637943 7.49754e-05 0.00302711 0.0141548 -0.206271)
(-0.000293537 5.30686e-05 0.000107657 3.04094e-05 -0.00653794 9.19959e-05 0.000464224 0.0145596 -0.205942)
(-3.97715e-05 7.22323e-06 -4.84077e-06 3.68561e-06 -0.00655948 9.04476e-05 0.000111078 0.0146368 -0.206008)
(-5.11227e-06 1.85774e-06 -2.75308e-06 2.83356e-07 -0.00655815 9.90945e-05 5.64033e-05 0.0146329 -0.206042)
(-1.19851e-06 -2.26062e-06 4.13751e-07 -1.62785e-06 -0.00655243 9.23847e-05 4.51538e-05 0.0147308 -0.206052)
(-1.39676e-06 -2.89905e-06 1.01176e-06 -1.29929e-06 -0.00654599 9.17539e-05 3.4272e-05 0.0146123 -0.206045)
(-8.27231e-07 1.95481e-06 -2.3046e-07 1.15113e-06 -0.00655166 9.65512e-05 2.62782e-05 0.0146205 -0.206046)
(-6.58122e-07 -1.09032e-07 -2.16252e-07 -4.31984e-07 -0.0065384 9.33104e-05 2.39351e-05 0.0147093 -0.206051)
(-1.3644e-06 -1.73959e-06 -8.76869e-08 -2.72536e-06 -0.00654971 9.21823e-05 1.65871e-05 0.0146194 -0.206044)
(-4.08096e-07 1.85388e-06 -2.94987e-07 9.39049e-07 -0.00653387 8.69419e-05 -5.62192e-06 0.0146357 -0.206041)
(6.4811e-07 4.63752e-07 5.16342e-07 1.87363e-06 -0.00652722 9.07672e-05 6.61723e-06 0.0147195 -0.206043)
(-5.45059e-07 -3.30918e-06 9.89417e-07 -1.4404e-06 -0.00654934 9.26418e-05 1.99013e-05 0.014621 -0.206041)
(-1.05927e-06 1.0904e-06 -2.38007e-07 7.80903e-07 -0.00654676 8.92559e-05 4.3135e-07 0.0146084 -0.206042)
(-1.29587e-07 1.20067e-06 7.01836e-09 1.17325e-06 -0.00653969 9.16672e-05 -4.00522e-06 0.014708 -0.206048)
(-3.30276e-07 -2.28176e-06 2.5147e-07 -1.6309e-06 -0.00654916 9.23676e-05 -3.90216e-06 0.0146187 -0.206043)
(-7.88747e-07 -7.93186e-07 -8.02011e-07 -1.85003e-06 -0.00654532 9.05401e-05 -7.28492e-06 0.0146095 -0.206042)
(-4.88646e-07 -2.03375e-07 -5.07911e-07 -6.79432e-07 -0.00653899 8.91558e-05 -2.443e-05 0.0146307 -0.206042)
(-3.86354e-07 -1.23742e-06 2.88799e-07 -1.25981e-06 -0.00652961 8.75056e-05 -2.90928e-05 0.0146084 -0.206035)
(-2.63314e-07 2.72065e-06 -5.57586e-07 2.2442e-06 -0.00652609 8.29716e-05 -9.75817e-06 0.014544 -0.206032)
(-8.86064e-07 1.61838e-06 2.70711e-07 3.02013e-06 -0.00655675 9.54502e-05 -1.28009e-05 0.0146325 -0.206046)
(-2.08569e-06 1.18692e-06 2.27043e-08 6.14538e-07 -0.00654548 9.17293e-05 -3.40013e-05 0.0146144 -0.206046)
(-1.46472e-06 5.06433e-06 -1.97135e-06 2.34615e-06 -0.00654583 9.29711e-05 -5.94433e-05 0.0147256 -0.206052)
(-4.09438e-06 -2.61074e-06 2.04696e-06 -8.9575e-07 -0.00654162 9.65543e-05 -6.76997e-05 0.0147389 -0.206044)
(-3.95616e-05 -1.11324e-05 6.11416e-06 -7.3731e-06 -0.00653385 8.99433e-05 -9.11001e-05 0.0146171 -0.206011)
(-0.000294084 -5.14975e-05 -0.000107117 -2.89837e-05 -0.00653267 8.31127e-05 -0.00045146 0.0145752 -0.205933)
(-0.00214886 -0.00021076 -0.000999099 -0.000131078 -0.00638369 7.74993e-05 -0.00303206 0.0141532 -0.206263)
(-0.0190857 -0.00016904 0.0051907 -0.000452343 -0.00577181 -5.23457e-05 -0.0242898 0.0123467 -0.208301)
(-0.0914154 0.00122157 0.120631 -0.00245059 -0.00557299 0.000656946 -0.229127 0.01216 -0.150963)
(-0.0920461 -0.000750486 -0.121799 0.00149047 -0.00351588 0.000380285 0.231353 0.00765002 -0.150982)
(-0.0192621 0.000106793 -0.00523596 0.0003027 -0.00357484 -5.15732e-05 0.0246816 0.00768369 -0.208849)
(-0.00218266 0.000145956 0.00101149 9.83159e-05 -0.00402833 2.86775e-05 0.00314632 0.00885676 -0.206796)
(-0.000304584 3.85805e-05 0.000109026 2.2931e-05 -0.0041398 3.71007e-05 0.00049161 0.00921252 -0.206478)
(-4.23359e-05 5.44279e-06 -4.42832e-06 3.19534e-06 -0.00415747 3.68443e-05 0.00011233 0.00926962 -0.20656)
(-5.58929e-06 1.29319e-06 -2.42136e-06 5.65586e-07 -0.00415593 3.95166e-05 5.61149e-05 0.00926911 -0.20658)
(-1.33448e-06 -1.33789e-06 -3.36248e-08 -1.22e-06 -0.00416112 4.20416e-05 4.37712e-05 0.00927539 -0.206586)
(-1.16426e-06 -1.7064e-06 9.79924e-07 -7.99822e-07 -0.00414843 3.67196e-05 3.39994e-05 0.00925604 -0.206585)
(-7.89791e-07 1.2801e-06 3.96129e-08 4.65919e-07 -0.00415141 3.86409e-05 2.70564e-05 0.00926088 -0.206583)
(-1.0511e-06 -8.6441e-09 -5.66308e-08 -4.58699e-07 -0.00415481 3.98605e-05 2.35103e-05 0.00926764 -0.20657)
(-1.08144e-06 -1.81411e-07 -1.12663e-06 -9.89953e-07 -0.00415071 4.03952e-05 1.55316e-06 0.00926035 -0.206581)
(1.34759e-07 2.84937e-06 -8.06116e-07 1.87712e-06 -0.00413915 3.54926e-05 8.76385e-06 0.00926887 -0.206578)
(1.22351e-07 -6.34701e-07 1.30134e-06 6.24947e-07 -0.00415137 3.83053e-05 2.10131e-05 0.00935931 -0.206586)
(-7.38744e-07 -4.1745e-06 7.26827e-07 -2.66365e-06 -0.00415012 3.68395e-05 5.28926e-06 0.00926242 -0.206581)
(-6.53914e-07 5.66876e-07 -2.51481e-07 1.13462e-07 -0.00415237 3.59322e-05 5.64215e-07 0.00925161 -0.206581)
(-3.00904e-07 1.17887e-06 2.78477e-07 1.25857e-06 -0.00415457 3.72583e-05 -2.9915e-06 0.00926805 -0.206571)
(-7.03242e-07 -1.49198e-06 1.02483e-07 -9.18949e-07 -0.0041496 3.65788e-05 -4.82348e-06 0.00926092 -0.206583)
(-5.52429e-07 -5.09739e-07 -1.01102e-06 -1.71777e-06 -0.00414857 3.44901e-05 -2.13055e-05 0.00925464 -0.206582)
(-1.28247e-07 1.35985e-06 -6.03652e-07 7.06563e-07 -0.00413633 3.45959e-05 -1.08496e-05 0.00919782 -0.206558)
(-4.49983e-07 1.86434e-06 -2.98599e-07 1.6857e-06 -0.00414656 3.54305e-05 -1.59605e-05 0.00933978 -0.206584)
(-2.05399e-07 3.2039e-07 3.45295e-07 7.99329e-07 -0.00412959 3.18128e-05 -2.1798e-05 0.00935116 -0.206584)
(-8.82688e-07 -1.53864e-06 1.12584e-06 9.83127e-08 -0.0041548 4.1433e-05 -1.17247e-05 0.00926867 -0.206583)
(-1.89019e-06 7.99304e-07 -5.59554e-07 4.20256e-07 -0.00414806 3.72265e-05 -3.36874e-05 0.00925834 -0.206585)
(-1.424e-06 4.56583e-06 -1.19185e-06 2.88682e-06 -0.00415826 3.99009e-05 -4.44232e-05 0.0092746 -0.206585)
(-5.3606e-06 -6.13746e-08 2.0142e-06 5.24255e-07 -0.0041608 4.42039e-05 -5.43322e-05 0.0093683 -0.206583)
(-4.23764e-05 -9.73127e-06 4.41907e-06 -7.23061e-06 -0.00414599 3.62703e-05 -0.000123322 0.0093459 -0.20656)
(-0.000304278 -3.97333e-05 -0.000108457 -2.3915e-05 -0.00412923 3.12935e-05 -0.000492242 0.00914532 -0.206463)
(-0.00218284 -0.000145475 -0.00100974 -9.65347e-05 -0.00403112 2.80276e-05 -0.00313585 0.00885466 -0.206788)
(-0.0192622 -0.000105597 0.00523544 -0.000302063 -0.00357562 -5.59299e-05 -0.0246847 0.00768241 -0.208844)
(-0.092045 0.000755414 0.121797 -0.00149727 -0.00351652 0.00038484 -0.23135 0.00765871 -0.150984)
(-0.0924317 -0.0004475 -0.12249 0.000881359 -0.00222652 0.000235625 0.232671 0.00480086 -0.151005)
(-0.0193651 6.76769e-05 -0.00526197 0.000192857 -0.00222313 -2.49718e-05 0.0249388 0.00478125 -0.209169)
(-0.00220446 9.85804e-05 0.0010182 7.06458e-05 -0.00254178 2.55353e-05 0.00323305 0.00556222 -0.207125)
(-0.000312561 2.72407e-05 0.00010929 1.68062e-05 -0.00262682 2.84803e-05 0.000512658 0.00581625 -0.206814)
(-4.42446e-05 3.99566e-06 -4.3576e-06 2.5267e-06 -0.00264488 2.76021e-05 0.000117201 0.00586032 -0.206887)
(-5.99533e-06 1.12611e-06 -1.71362e-06 1.00344e-06 -0.00264017 2.86176e-05 5.59962e-05 0.00585861 -0.206919)
(-1.4716e-06 -7.60244e-07 -1.45651e-07 -7.89704e-07 -0.00264277 3.28927e-05 4.26905e-05 0.00586106 -0.206923)