/*--------------------------------*- C++ -*----------------------------------*\
| =========                 |                                                 |
| \\      /  F ield         | OpenFOAM: The Open Source CFD Toolbox           |
|  \\    /   O peration     | Version:  2106                                  |
|   \\  /    A nd           | Website:  www.openfoam.com                      |
|    \\/     M anipulation  |                                                 |
\*---------------------------------------------------------------------------*/
FoamFile
{
    version     2.0;
    format      ascii;
    arch        "LSB;label=32;scalar=64";
    class       volVectorField;
    location    "609";
    object      D;
}
// * * * * * * * * * * * * * * * * * * * * * * * * * * * * * * * * * * * * * //

dimensions      [0 1 0 0 0 0 0];

internalField   nonuniform List<vector> 
9000
(
(1.14012e-05 2.08537e-05 3.13301e-06)
(1.32498e-06 2.19597e-05 8.18792e-08)
(2.18851e-07 2.33117e-05 1.22925e-06)
(3.8783e-08 2.36142e-05 1.4426e-06)
(4.8062e-09 2.36231e-05 1.44567e-06)
(1.87179e-09 2.35883e-05 1.42371e-06)
(2.1711e-09 2.36077e-05 1.43564e-06)
(9.47924e-10 2.35875e-05 1.42356e-06)
(2.17349e-09 2.3587e-05 1.42312e-06)
(3.21911e-10 2.36142e-05 1.44053e-06)
(-2.19786e-09 2.35987e-05 1.42901e-06)
(1.92672e-09 2.35712e-05 1.41083e-06)
(3.02733e-09 2.36104e-05 1.4382e-06)
(-1.13061e-09 2.36112e-05 1.43839e-06)
(1.34509e-10 2.36024e-05 1.43097e-06)
(1.15974e-09 2.36153e-05 1.44103e-06)
(-1.61438e-09 2.3611e-05 1.43818e-06)
(-2.78866e-10 2.36029e-05 1.43138e-06)
(-1.60263e-09 2.36119e-05 1.43919e-06)
(-1.72336e-09 2.35731e-05 1.41257e-06)
(1.48276e-09 2.35845e-05 1.42145e-06)
(9.95585e-11 2.36128e-05 1.43955e-06)
(-2.32115e-09 2.36151e-05 1.4411e-06)
(-2.24349e-09 2.35897e-05 1.42486e-06)
(-2.28921e-09 2.36104e-05 1.43832e-06)
(-7.45653e-09 2.35977e-05 1.42942e-06)
(-3.82325e-08 2.35956e-05 1.42936e-06)
(-2.17138e-07 2.33053e-05 1.22528e-06)
(-1.32484e-06 2.19592e-05 8.1618e-08)
(-1.14013e-05 2.08526e-05 3.13247e-06)
(1.10746e-05 1.25642e-05 -5.84678e-06)
(1.22261e-06 1.31888e-05 -9.25912e-06)
(1.42894e-07 1.40062e-05 -8.68763e-06)
(2.11285e-08 1.42108e-05 -8.60734e-06)
(5.26894e-09 1.42168e-05 -8.60821e-06)
(2.86766e-09 1.41994e-05 -8.60652e-06)
(2.24464e-09 1.42058e-05 -8.60991e-06)
(1.43796e-09 1.41996e-05 -8.60569e-06)
(1.23277e-09 1.41991e-05 -8.60596e-06)
(9.25798e-10 1.42097e-05 -8.60941e-06)
(4.3015e-10 1.42063e-05 -8.60727e-06)
(6.10854e-10 1.41957e-05 -8.60351e-06)
(4.77205e-10 1.42066e-05 -8.60978e-06)
(-1.07023e-10 1.42055e-05 -8.60883e-06)
(-4.32243e-11 1.42089e-05 -8.60721e-06)
(-1.89743e-11 1.42106e-05 -8.60935e-06)
(-2.88276e-10 1.42054e-05 -8.60887e-06)
(-1.72741e-10 1.42092e-05 -8.60716e-06)
(-3.97828e-10 1.42083e-05 -8.60948e-06)
(-6.80534e-10 1.4197e-05 -8.60348e-06)
(-9.35976e-10 1.41977e-05 -8.60545e-06)
(-1.22287e-09 1.42081e-05 -8.61013e-06)
(-1.57747e-09 1.42104e-05 -8.60937e-06)
(-1.98268e-09 1.42007e-05 -8.60581e-06)
(-2.65304e-09 1.42063e-05 -8.61018e-06)
(-5.46395e-09 1.42075e-05 -8.60442e-06)
(-2.11597e-08 1.42053e-05 -8.60522e-06)
(-1.42935e-07 1.39996e-05 -8.68765e-06)
(-1.22274e-06 1.31884e-05 -9.2591e-06)
(-1.10746e-05 1.2563e-05 -5.84704e-06)
(1.11455e-05 7.77732e-06 -7.41047e-06)
(1.21858e-06 8.20009e-06 -1.09328e-05)
(1.29817e-07 8.74722e-06 -1.04557e-05)
(1.55844e-08 8.8942e-06 -1.04014e-05)
(5.41185e-09 8.90013e-06 -1.04033e-05)
(3.20563e-09 8.89471e-06 -1.04005e-05)
(2.25564e-09 8.89175e-06 -1.04036e-05)
(1.82601e-09 8.89706e-06 -1.04005e-05)
(7.08108e-10 8.89638e-06 -1.04008e-05)
(8.12953e-10 8.89489e-06 -1.04035e-05)
(1.49402e-09 8.89245e-06 -1.04027e-05)
(3.03667e-10 8.89436e-06 -1.03991e-05)
(-8.00259e-10 8.89131e-06 -1.04021e-05)
(8.1188e-11 8.89518e-06 -1.04018e-05)
(1.19451e-10 8.89449e-06 -1.04029e-05)
(-5.39147e-10 8.8956e-06 -1.04036e-05)
(4.46646e-11 8.89517e-06 -1.04019e-05)
(1.63738e-10 8.8945e-06 -1.04029e-05)
(2.51615e-10 8.89403e-06 -1.04032e-05)
(-1.12729e-10 8.89529e-06 -1.03996e-05)
(-1.83534e-09 8.89598e-06 -1.03997e-05)
(-1.94777e-09 8.89216e-06 -1.04031e-05)
(-1.12898e-09 8.89558e-06 -1.04036e-05)
(-1.88638e-09 8.89691e-06 -1.04011e-05)
(-2.74137e-09 8.89068e-06 -1.04032e-05)
(-4.60251e-09 8.90254e-06 -1.04001e-05)
(-1.62497e-08 8.8905e-06 -1.04001e-05)
(-1.30468e-07 8.74567e-06 -1.04539e-05)
(-1.21862e-06 8.19989e-06 -1.09326e-05)
(-1.11453e-05 7.7757e-06 -7.41094e-06)
(1.15311e-05 4.89029e-06 -7.0978e-06)
(1.261e-06 5.15984e-06 -1.0743e-05)
(1.42601e-07 5.55743e-06 -1.02383e-05)
(1.67337e-08 5.6639e-06 -1.018e-05)
(4.93088e-09 5.66962e-06 -1.01823e-05)
(3.17253e-09 5.66626e-06 -1.01821e-05)
(2.36009e-09 5.66255e-06 -1.01824e-05)
(1.70726e-09 5.66736e-06 -1.01835e-05)
(9.05156e-10 5.66573e-06 -1.01827e-05)
(9.74972e-10 5.66614e-06 -1.01823e-05)
(1.39748e-09 5.66428e-06 -1.01823e-05)
(1.21015e-10 5.66537e-06 -1.01824e-05)
(-6.06669e-10 5.66574e-06 -1.01811e-05)
(2.78094e-10 5.67108e-06 -1.01821e-05)
(1.13623e-11 5.66622e-06 -1.01822e-05)
(-4.39157e-10 5.66677e-06 -1.01825e-05)
(5.41825e-11 5.67102e-06 -1.01823e-05)
(1.32564e-10 5.66619e-06 -1.01822e-05)
(6.89021e-11 5.66552e-06 -1.01816e-05)
(-3.23936e-10 5.6662e-06 -1.01831e-05)
(-1.78276e-09 5.66665e-06 -1.01826e-05)
(-1.82293e-09 5.66576e-06 -1.01815e-05)
(-1.16998e-09 5.66687e-06 -1.01825e-05)
(-2.06227e-09 5.66587e-06 -1.01834e-05)
(-2.70232e-09 5.66346e-06 -1.01812e-05)
(-4.19255e-09 5.67098e-06 -1.01828e-05)
(-1.70788e-08 5.66143e-06 -1.01795e-05)
(-1.43276e-07 5.56058e-06 -1.02373e-05)
(-1.26126e-06 5.15978e-06 -1.07428e-05)
(-1.15304e-05 4.88785e-06 -7.09761e-06)
(1.20059e-05 3.08841e-06 -6.68516e-06)
(1.31987e-06 3.2357e-06 -1.04719e-05)
(1.60983e-07 3.53286e-06 -9.93139e-06)
(1.9928e-08 3.61011e-06 -9.86563e-06)
(4.7349e-09 3.61481e-06 -9.86756e-06)
(2.82044e-09 3.61726e-06 -9.86871e-06)
(2.37563e-09 3.61106e-06 -9.86822e-06)
(1.6008e-09 3.61408e-06 -9.86904e-06)
(1.0862e-09 3.61416e-06 -9.86855e-06)
(1.19723e-09 3.61293e-06 -9.868e-06)
(1.12122e-09 3.61115e-06 -9.86791e-06)
(2.1466e-10 3.61246e-06 -9.86837e-06)
(-3.57225e-10 3.61542e-06 -9.86857e-06)
(2.56636e-10 3.6165e-06 -9.86937e-06)
(5.27266e-11 3.61348e-06 -9.86812e-06)
(-4.06792e-10 3.61346e-06 -9.86849e-06)
(-2.34704e-12 3.61638e-06 -9.86949e-06)
(1.36205e-10 3.61346e-06 -9.86813e-06)
(-1.6716e-10 3.61248e-06 -9.86736e-06)
(-5.37688e-10 3.61315e-06 -9.86885e-06)
(-1.44962e-09 3.61361e-06 -9.86843e-06)
(-1.57343e-09 3.61485e-06 -9.86807e-06)
(-1.48894e-09 3.61395e-06 -9.86835e-06)
(-2.22986e-09 3.61404e-06 -9.86894e-06)
(-2.46913e-09 3.6141e-06 -9.86815e-06)
(-4.14397e-09 3.6162e-06 -9.86822e-06)
(-2.02171e-08 3.60822e-06 -9.86531e-06)
(-1.61467e-07 3.53449e-06 -9.93218e-06)
(-1.32022e-06 3.2357e-06 -1.04717e-05)
(-1.20044e-05 3.08804e-06 -6.6849e-06)
(1.24206e-05 1.94918e-06 -6.45396e-06)
(1.37763e-06 2.01608e-06 -1.03624e-05)
(1.77706e-07 2.23318e-06 -9.79613e-06)
(2.33539e-08 2.2923e-06 -9.7261e-06)
(4.93711e-09 2.29788e-06 -9.72807e-06)
(2.66292e-09 2.30039e-06 -9.73019e-06)
(2.24208e-09 2.29661e-06 -9.72911e-06)
(1.68231e-09 2.2964e-06 -9.72912e-06)
(1.09445e-09 2.29827e-06 -9.72939e-06)
(9.93352e-10 2.2948e-06 -9.72863e-06)
(9.42993e-10 2.29536e-06 -9.72875e-06)
(3.26413e-10 2.29436e-06 -9.72835e-06)
(-1.03816e-10 2.29607e-06 -9.72984e-06)
(3.40035e-10 2.29779e-06 -9.72934e-06)
(4.67185e-11 2.29593e-06 -9.72867e-06)
(-3.43209e-10 2.2951e-06 -9.72873e-06)
(-3.46209e-11 2.29766e-06 -9.72939e-06)
(-5.64296e-12 2.29595e-06 -9.72873e-06)
(-3.26542e-10 2.29424e-06 -9.72808e-06)
(-5.76182e-10 2.29534e-06 -9.72913e-06)
(-1.39004e-09 2.29573e-06 -9.72865e-06)
(-1.39254e-09 2.29775e-06 -9.72978e-06)
(-1.31753e-09 2.29638e-06 -9.72896e-06)
(-2.3605e-09 2.29742e-06 -9.72891e-06)
(-2.47013e-09 2.29813e-06 -9.73023e-06)
(-4.29475e-09 2.29727e-06 -9.72834e-06)
(-2.37809e-08 2.29004e-06 -9.72519e-06)
(-1.77995e-07 2.23405e-06 -9.79685e-06)
(-1.37779e-06 2.0161e-06 -1.03621e-05)
(-1.24187e-05 1.951e-06 -6.45413e-06)
(1.27248e-05 1.22833e-06 -6.34365e-06)
(1.42551e-06 1.25135e-06 -1.03402e-05)
(1.91036e-07 1.40759e-06 -9.75746e-06)
(2.66423e-08 1.4511e-06 -9.68504e-06)
(5.21345e-09 1.4573e-06 -9.68685e-06)
(2.40678e-09 1.45741e-06 -9.68893e-06)
(2.14554e-09 1.45722e-06 -9.68871e-06)
(1.67601e-09 1.45491e-06 -9.68797e-06)
(9.6201e-10 1.45599e-06 -9.68861e-06)
(1.01756e-09 1.45476e-06 -9.68815e-06)
(7.74757e-10 1.45574e-06 -9.68805e-06)
(1.09055e-10 1.45405e-06 -9.68803e-06)
(2.45588e-10 1.45465e-06 -9.6884e-06)
(5.13182e-10 1.45569e-06 -9.68793e-06)
(-8.7337e-11 1.45447e-06 -9.68771e-06)
(-2.60358e-10 1.45477e-06 -9.68797e-06)
(4.32811e-11 1.45557e-06 -9.68794e-06)
(-3.13085e-10 1.45453e-06 -9.68775e-06)
(-4.41455e-10 1.45387e-06 -9.68819e-06)
(-4.76562e-10 1.45334e-06 -9.68775e-06)
(-1.14172e-09 1.45339e-06 -9.68757e-06)
(-1.20158e-09 1.45717e-06 -9.68859e-06)
(-1.53449e-09 1.45494e-06 -9.68799e-06)
(-2.40258e-09 1.45623e-06 -9.68864e-06)
(-2.32699e-09 1.45746e-06 -9.68944e-06)
(-4.73002e-09 1.45459e-06 -9.6869e-06)
(-2.68677e-08 1.44979e-06 -9.6847e-06)
(-1.91103e-07 1.40809e-06 -9.75753e-06)
(-1.42566e-06 1.25138e-06 -1.03398e-05)
(-1.27235e-05 1.22963e-06 -6.34435e-06)
(1.29259e-05 7.7307e-07 -6.28817e-06)
(1.4613e-06 7.76242e-07 -1.03426e-05)
(2.0118e-07 8.86488e-07 -9.74942e-06)
(2.89521e-08 9.17267e-07 -9.67566e-06)
(5.48245e-09 9.21854e-07 -9.67767e-06)
(2.41047e-09 9.22076e-07 -9.67888e-06)
(2.02487e-09 9.23091e-07 -9.67949e-06)
(1.55968e-09 9.20574e-07 -9.67859e-06)
(1.05684e-09 9.21165e-07 -9.67881e-06)
(9.92153e-10 9.21885e-07 -9.67874e-06)
(6.15109e-10 9.21104e-07 -9.67894e-06)
(7.8032e-11 9.20736e-07 -9.67879e-06)
(3.37183e-10 9.22345e-07 -9.67914e-06)
(5.15333e-10 9.21047e-07 -9.67845e-06)
(-1.23618e-11 9.2014e-07 -9.67848e-06)
(-1.80205e-10 9.21772e-07 -9.67861e-06)
(-8.87474e-11 9.20935e-07 -9.67848e-06)
(-3.86358e-10 9.20248e-07 -9.67844e-06)
(-6.03992e-10 9.20407e-07 -9.67901e-06)
(-7.11755e-10 9.2011e-07 -9.67878e-06)
(-8.71865e-10 9.1958e-07 -9.67882e-06)
(-9.05042e-10 9.21922e-07 -9.67916e-06)
(-1.48504e-09 9.2065e-07 -9.67865e-06)
(-2.32647e-09 9.227e-07 -9.67915e-06)
(-2.50542e-09 9.24016e-07 -9.67997e-06)
(-5.10449e-09 9.20958e-07 -9.67779e-06)
(-2.89133e-08 9.16603e-07 -9.6759e-06)
(-2.01175e-07 8.86641e-07 -9.74919e-06)
(-1.4615e-06 7.76116e-07 -1.0342e-05)
(-1.29252e-05 7.73969e-07 -6.28858e-06)
(1.30504e-05 4.85801e-07 -6.25667e-06)
(1.48582e-06 4.82065e-07 -1.03471e-05)
(2.08764e-07 5.56973e-07 -9.74747e-06)
(3.06934e-08 5.79348e-07 -9.67278e-06)
(5.7026e-09 5.82683e-07 -9.6748e-06)
(2.44289e-09 5.8297e-07 -9.67573e-06)
(1.92768e-09 5.83541e-07 -9.6764e-06)
(1.50197e-09 5.82081e-07 -9.67574e-06)
(1.11466e-09 5.82409e-07 -9.67574e-06)
(9.5956e-10 5.82941e-07 -9.67571e-06)
(4.11266e-10 5.82412e-07 -9.67577e-06)
(2.34315e-10 5.82828e-07 -9.67645e-06)
(4.95412e-10 5.84316e-07 -9.6763e-06)
(3.21271e-10 5.82408e-07 -9.67559e-06)
(1.65944e-11 5.81535e-07 -9.67582e-06)
(-1.04419e-10 5.82784e-07 -9.67576e-06)
(-1.73645e-10 5.82316e-07 -9.67564e-06)
(-5.58377e-10 5.81788e-07 -9.67569e-06)
(-5.31276e-10 5.81977e-07 -9.67631e-06)
(-6.43664e-10 5.82692e-07 -9.67609e-06)
(-8.41333e-10 5.83219e-07 -9.67651e-06)
(-7.98705e-10 5.82905e-07 -9.67587e-06)
(-1.45314e-09 5.82186e-07 -9.67577e-06)
(-2.09014e-09 5.83425e-07 -9.67625e-06)
(-2.44573e-09 5.85219e-07 -9.67657e-06)
(-5.71088e-09 5.83384e-07 -9.67491e-06)
(-3.07288e-08 5.78742e-07 -9.67363e-06)
(-2.08576e-07 5.56909e-07 -9.7472e-06)
(-1.48597e-06 4.81778e-07 -1.03468e-05)
(-1.30502e-05 4.86528e-07 -6.25677e-06)
(1.31246e-05 3.04262e-07 -6.23747e-06)
(1.50166e-06 2.99577e-07 -1.03495e-05)
(2.14285e-07 3.49359e-07 -9.74561e-06)
(3.20068e-08 3.65279e-07 -9.67072e-06)
(5.90638e-09 3.67512e-07 -9.67276e-06)
(2.48399e-09 3.67936e-07 -9.67362e-06)
(1.8613e-09 3.68257e-07 -9.67389e-06)
(1.45227e-09 3.67431e-07 -9.67371e-06)
(1.11809e-09 3.67624e-07 -9.67367e-06)
(9.30458e-10 3.67888e-07 -9.67344e-06)
(4.82833e-10 3.67651e-07 -9.67357e-06)
(3.28265e-10 3.68822e-07 -9.67406e-06)
(4.20726e-10 3.68803e-07 -9.67404e-06)
(1.60616e-10 3.67673e-07 -9.67354e-06)
(2.63623e-12 3.66467e-07 -9.6737e-06)
(-1.28066e-11 3.67806e-07 -9.67365e-06)
(-2.10745e-10 3.67632e-07 -9.67361e-06)
(-6.14385e-10 3.67082e-07 -9.67385e-06)
(-5.09178e-10 3.68872e-07 -9.67441e-06)
(-4.8605e-10 3.67213e-07 -9.67406e-06)
(-7.64151e-10 3.68946e-07 -9.67459e-06)
(-8.91779e-10 3.67928e-07 -9.67364e-06)
(-1.42966e-09 3.67556e-07 -9.6737e-06)
(-1.94216e-09 3.68247e-07 -9.67384e-06)
(-2.43488e-09 3.69224e-07 -9.67409e-06)
(-6.06612e-09 3.68142e-07 -9.67297e-06)
(-3.20987e-08 3.66022e-07 -9.67173e-06)
(-2.14042e-07 3.4914e-07 -9.74546e-06)
(-1.50177e-06 2.99348e-07 -1.03494e-05)
(-1.31248e-05 3.05074e-07 -6.23728e-06)
(1.31679e-05 1.88917e-07 -6.22526e-06)
(1.51153e-06 1.85636e-07 -1.03504e-05)
(2.1818e-07 2.18059e-07 -9.74407e-06)
(3.29322e-08 2.29099e-07 -9.669e-06)
(6.03764e-09 2.30027e-07 -9.67113e-06)
(2.57472e-09 2.30941e-07 -9.67192e-06)
(1.82144e-09 2.31164e-07 -9.67202e-06)
(1.4076e-09 2.30707e-07 -9.67202e-06)
(1.09318e-09 2.3085e-07 -9.672e-06)
(9.00355e-10 2.31004e-07 -9.67189e-06)
(5.32652e-10 2.30809e-07 -9.67186e-06)
(3.95372e-10 2.31272e-07 -9.67244e-06)
(3.91281e-10 2.31522e-07 -9.67195e-06)
(-3.65846e-11 2.30912e-07 -9.67185e-06)
(-1.14574e-13 2.30568e-07 -9.6724e-06)
(1.43517e-10 2.31039e-07 -9.6719e-06)
(-2.67287e-10 2.30916e-07 -9.67189e-06)
(-4.82945e-10 2.29999e-07 -9.67209e-06)
(-5.5361e-10 2.32583e-07 -9.67255e-06)
(-5.91939e-10 2.31032e-07 -9.67252e-06)
(-6.27093e-10 2.31032e-07 -9.67254e-06)
(-9.09603e-10 2.30894e-07 -9.67196e-06)
(-1.40436e-09 2.30843e-07 -9.67198e-06)
(-1.85032e-09 2.3119e-07 -9.67198e-06)
(-2.4474e-09 2.31699e-07 -9.67195e-06)
(-6.20631e-09 2.30961e-07 -9.67106e-06)
(-3.31231e-08 2.29465e-07 -9.66982e-06)
(-2.18032e-07 2.17613e-07 -9.74414e-06)
(-1.51154e-06 1.85477e-07 -1.03504e-05)
(-1.31684e-05 1.90159e-07 -6.22521e-06)
(1.31929e-05 1.16533e-07 -6.21822e-06)
(1.51759e-06 1.13599e-07 -1.03507e-05)
(2.20835e-07 1.3419e-07 -9.74301e-06)
(3.35341e-08 1.41622e-07 -9.66774e-06)
(6.14688e-09 1.42716e-07 -9.6703e-06)
(2.71889e-09 1.42732e-07 -9.67079e-06)
(1.80544e-09 1.42959e-07 -9.67079e-06)
(1.37554e-09 1.42728e-07 -9.67081e-06)
(1.08505e-09 1.42851e-07 -9.6708e-06)
(8.73625e-10 1.43021e-07 -9.67069e-06)
(5.19562e-10 1.42676e-07 -9.67073e-06)
(4.48165e-10 1.42446e-07 -9.67088e-06)
(4.10174e-10 1.43203e-07 -9.67059e-06)
(-1.35546e-12 1.42904e-07 -9.67064e-06)
(8.509e-12 1.43262e-07 -9.67113e-06)
(9.05354e-11 1.43006e-07 -9.67058e-06)
(-3.91333e-10 1.42975e-07 -9.67058e-06)
(-4.0865e-10 1.42888e-07 -9.67119e-06)
(-3.38501e-10 1.4388e-07 -9.6711e-06)
(-7.3043e-10 1.43591e-07 -9.67115e-06)
(-7.24277e-10 1.43456e-07 -9.67125e-06)
(-8.36641e-10 1.42563e-07 -9.6709e-06)
(-1.37154e-09 1.42871e-07 -9.67075e-06)
(-1.79765e-09 1.42981e-07 -9.67072e-06)
(-2.47846e-09 1.43259e-07 -9.67061e-06)
(-6.45924e-09 1.42555e-07 -9.66989e-06)
(-3.39183e-08 1.41505e-07 -9.66861e-06)
(-2.20631e-07 1.333e-07 -9.743e-06)
(-1.51736e-06 1.13498e-07 -1.03508e-05)
(-1.31934e-05 1.16771e-07 -6.21783e-06)
(1.32075e-05 6.94754e-08 -6.21394e-06)
(1.52089e-06 6.68872e-08 -1.03509e-05)
(2.22559e-07 7.938e-08 -9.74232e-06)
(3.41391e-08 8.41229e-08 -9.66687e-06)
(6.20369e-09 8.51867e-08 -9.66939e-06)
(2.64721e-09 8.45044e-08 -9.67022e-06)
(1.81368e-09 8.48891e-08 -9.67003e-06)
(1.35802e-09 8.48001e-08 -9.67005e-06)
(1.08693e-09 8.48994e-08 -9.67004e-06)
(8.39615e-10 8.49598e-08 -9.66984e-06)
(4.21306e-10 8.4512e-08 -9.67016e-06)
(5.00849e-10 8.50933e-08 -9.67034e-06)
(5.05011e-10 8.51039e-08 -9.66981e-06)
(-3.33746e-11 8.49315e-08 -9.66989e-06)
(1.37559e-11 8.43917e-08 -9.67036e-06)
(1.20746e-10 8.48659e-08 -9.66969e-06)
(-2.86079e-10 8.4983e-08 -9.66968e-06)
(-3.61761e-10 8.57865e-08 -9.67016e-06)
(-4.2489e-10 8.55141e-08 -9.66992e-06)
(-6.42468e-10 8.46814e-08 -9.67033e-06)
(-7.79028e-10 8.61234e-08 -9.67004e-06)
(-9.6663e-10 8.40675e-08 -9.6701e-06)
(-1.32465e-09 8.49485e-08 -9.66991e-06)
(-1.7731e-09 8.48674e-08 -9.66997e-06)
(-2.53454e-09 8.50653e-08 -9.66983e-06)
(-6.5562e-09 8.40472e-08 -9.66904e-06)
(-3.44994e-08 8.51964e-08 -9.66759e-06)
(-2.2243e-07 7.93607e-08 -9.74265e-06)
(-1.52065e-06 6.67791e-08 -1.03508e-05)
(-1.32076e-05 6.89721e-08 -6.21353e-06)
(1.32155e-05 3.56427e-08 -6.21151e-06)
(1.5228e-06 3.49757e-08 -1.0351e-05)
(2.23591e-07 4.16812e-08 -9.74195e-06)
(3.44488e-08 4.42216e-08 -9.66631e-06)
(6.16975e-09 4.38261e-08 -9.66927e-06)
(2.69269e-09 4.38562e-08 -9.66975e-06)
(1.86269e-09 4.46782e-08 -9.6696e-06)
(1.35187e-09 4.46696e-08 -9.66963e-06)
(1.06702e-09 4.47386e-08 -9.66961e-06)
(7.71881e-10 4.4676e-08 -9.66954e-06)
(5.52167e-10 4.39131e-08 -9.6697e-06)
(5.7305e-10 4.55987e-08 -9.66963e-06)
(3.93076e-10 4.48841e-08 -9.66933e-06)
(-1.56645e-10 4.47727e-08 -9.66946e-06)
(-1.71496e-11 4.47345e-08 -9.67014e-06)
(2.25646e-10 4.44813e-08 -9.6695e-06)
(-1.99649e-10 4.4755e-08 -9.66934e-06)
(-3.09051e-10 4.51524e-08 -9.66975e-06)
(-5.49079e-10 4.5023e-08 -9.66927e-06)
(-6.03578e-10 4.50448e-08 -9.67001e-06)
(-8.18885e-10 4.53254e-08 -9.66951e-06)
(-1.03403e-09 4.45956e-08 -9.67008e-06)
(-1.22345e-09 4.47358e-08 -9.66936e-06)
(-1.76492e-09 4.45485e-08 -9.66964e-06)
(-2.64864e-09 4.47986e-08 -9.6694e-06)
(-6.47428e-09 4.45861e-08 -9.66896e-06)
(-3.45517e-08 4.55489e-08 -9.66682e-06)
(-2.23623e-07 4.254e-08 -9.74206e-06)
(-1.52263e-06 3.47546e-08 -1.0351e-05)
(-1.32156e-05 3.62053e-08 -6.21115e-06)
(1.32189e-05 1.13872e-08 -6.21042e-06)
(1.52379e-06 1.08423e-08 -1.0351e-05)
(2.2405e-07 1.29367e-08 -9.7418e-06)
(3.4425e-08 1.36266e-08 -9.66625e-06)
(6.10301e-09 1.32298e-08 -9.66921e-06)
(2.84505e-09 1.38847e-08 -9.66988e-06)
(1.97871e-09 1.38665e-08 -9.66942e-06)
(1.35327e-09 1.38886e-08 -9.66944e-06)
(1.05371e-09 1.39237e-08 -9.66942e-06)
(6.47779e-10 1.38991e-08 -9.66943e-06)
(6.04692e-10 1.39124e-08 -9.66984e-06)
(6.97567e-10 1.41745e-08 -9.66956e-06)
(3.55051e-10 1.3887e-08 -9.66904e-06)
(-7.64016e-11 1.39653e-08 -9.66927e-06)
(-5.73379e-11 1.44556e-08 -9.66979e-06)
(1.37248e-10 1.34978e-08 -9.66961e-06)
(-1.38832e-10 1.38915e-08 -9.6691e-06)
(-2.94958e-10 1.4038e-08 -9.66935e-06)
(-4.46615e-10 1.40019e-08 -9.66919e-06)
(-5.85946e-10 1.48977e-08 -9.66946e-06)
(-8.49845e-10 1.41418e-08 -9.66926e-06)
(-1.06214e-09 1.43873e-08 -9.6698e-06)
(-1.31589e-09 1.38648e-08 -9.6693e-06)
(-1.74295e-09 1.35129e-08 -9.66964e-06)
(-2.54105e-09 1.39254e-08 -9.66919e-06)
(-6.44659e-09 1.43883e-08 -9.6686e-06)
(-3.47252e-08 1.41553e-08 -9.66655e-06)
(-2.24239e-07 1.33839e-08 -9.74194e-06)
(-1.52352e-06 1.03154e-08 -1.03513e-05)
(-1.3219e-05 1.12415e-08 -6.21015e-06)
(1.32192e-05 -1.03583e-08 -6.21024e-06)
(1.52361e-06 -1.08931e-08 -1.03511e-05)
(2.24031e-07 -1.3045e-08 -9.74178e-06)
(3.44461e-08 -1.39717e-08 -9.66631e-06)
(6.24534e-09 -1.31053e-08 -9.66913e-06)
(2.81979e-09 -1.31367e-08 -9.66958e-06)
(1.86814e-09 -1.40296e-08 -9.66942e-06)
(1.35709e-09 -1.39906e-08 -9.66943e-06)
(1.05384e-09 -1.39704e-08 -9.66942e-06)
(7.49962e-10 -1.3958e-08 -9.66944e-06)
(5.91666e-10 -1.31774e-08 -9.66955e-06)
(5.62677e-10 -1.42144e-08 -9.66959e-06)
(3.63147e-10 -1.42527e-08 -9.66925e-06)
(-4.28388e-11 -1.39376e-08 -9.66927e-06)
(-1.12972e-10 -1.43244e-08 -9.66978e-06)
(1.1125e-10 -1.47745e-08 -9.66959e-06)
(-8.31631e-11 -1.40842e-08 -9.66924e-06)
(-2.59677e-10 -1.41167e-08 -9.66935e-06)
(-3.89633e-10 -1.39186e-08 -9.66921e-06)
(-5.882e-10 -1.35302e-08 -9.66951e-06)
(-9.00963e-10 -1.39211e-08 -9.66926e-06)
(-1.07307e-09 -1.4384e-08 -9.6698e-06)
(-1.3564e-09 -1.39977e-08 -9.66937e-06)
(-1.73899e-09 -1.48032e-08 -9.66961e-06)
(-2.48559e-09 -1.40384e-08 -9.6692e-06)
(-6.46421e-09 -1.44939e-08 -9.66848e-06)
(-3.47224e-08 -1.41428e-08 -9.66654e-06)
(-2.24434e-07 -1.2764e-08 -9.74173e-06)
(-1.5236e-06 -1.19807e-08 -1.03511e-05)
(-1.32187e-05 -1.12832e-08 -6.21018e-06)
(1.32158e-05 -3.61656e-08 -6.21165e-06)
(1.5227e-06 -3.50635e-08 -1.0351e-05)
(2.2354e-07 -4.18513e-08 -9.74194e-06)
(3.45156e-08 -4.47406e-08 -9.66658e-06)
(6.3186e-09 -4.38315e-08 -9.669e-06)
(2.63489e-09 -4.43662e-08 -9.6698e-06)
(1.8092e-09 -4.48394e-08 -9.66963e-06)
(1.36729e-09 -4.47898e-08 -9.66961e-06)
(1.07133e-09 -4.47506e-08 -9.66962e-06)
(7.98642e-10 -4.47211e-08 -9.66958e-06)
(5.16609e-10 -4.44331e-08 -9.66978e-06)
(4.69838e-10 -4.56113e-08 -9.6697e-06)
(4.20981e-10 -4.52855e-08 -9.66972e-06)
(-7.50069e-11 -4.47127e-08 -9.66941e-06)
(-2.10188e-10 -4.44882e-08 -9.67006e-06)
(1.68961e-10 -4.46453e-08 -9.66998e-06)
(-1.38127e-11 -4.48692e-08 -9.66949e-06)
(-2.23279e-10 -4.52467e-08 -9.66975e-06)
(-3.4178e-10 -4.48281e-08 -9.66923e-06)
(-6.07502e-10 -4.46051e-08 -9.66952e-06)
(-1.00581e-09 -4.48592e-08 -9.66944e-06)
(-1.0734e-09 -4.45823e-08 -9.67008e-06)
(-1.37664e-09 -4.47491e-08 -9.66957e-06)
(-1.75164e-09 -4.47473e-08 -9.6701e-06)
(-2.48242e-09 -4.48421e-08 -9.66943e-06)
(-6.47446e-09 -4.48068e-08 -9.66893e-06)
(-3.44967e-08 -4.54611e-08 -9.66676e-06)
(-2.24208e-07 -4.15058e-08 -9.74174e-06)
(-1.52286e-06 -3.49843e-08 -1.03511e-05)
(-1.32147e-05 -3.62138e-08 -6.21125e-06)
(1.32077e-05 -6.97937e-08 -6.21373e-06)
(1.52084e-06 -6.69508e-08 -1.0351e-05)
(2.22465e-07 -7.96589e-08 -9.74242e-06)
(3.42322e-08 -8.5062e-08 -9.66712e-06)
(6.35828e-09 -8.52474e-08 -9.66923e-06)
(2.59383e-09 -8.47716e-08 -9.67003e-06)
(1.78368e-09 -8.49906e-08 -9.67008e-06)
(1.38061e-09 -8.49293e-08 -9.67006e-06)
(1.11148e-09 -8.48785e-08 -9.67004e-06)
(8.23629e-10 -8.49144e-08 -9.66981e-06)
(3.56857e-10 -8.47981e-08 -9.67002e-06)
(3.77126e-10 -8.50329e-08 -9.67041e-06)
(5.50748e-10 -8.58556e-08 -9.67014e-06)
(1.29511e-10 -8.49486e-08 -9.6697e-06)
(-7.23836e-11 -8.39128e-08 -9.67008e-06)
(2.11836e-11 -8.401e-08 -9.66984e-06)
(-2.21404e-10 -8.50518e-08 -9.66991e-06)
(-2.14884e-10 -8.58912e-08 -9.67017e-06)
(-2.69558e-10 -8.51781e-08 -9.66966e-06)
(-6.11752e-10 -8.49003e-08 -9.66989e-06)
(-8.90609e-10 -8.51974e-08 -9.66988e-06)
(-1.05392e-09 -8.40554e-08 -9.67009e-06)
(-1.38518e-09 -8.48641e-08 -9.66998e-06)
(-1.7599e-09 -8.40494e-08 -9.67019e-06)
(-2.49378e-09 -8.49751e-08 -9.66989e-06)
(-6.53377e-09 -8.422e-08 -9.66907e-06)
(-3.4324e-08 -8.51379e-08 -9.66735e-06)
(-2.2282e-07 -7.92696e-08 -9.7419e-06)
(-1.52097e-06 -6.57487e-08 -1.03509e-05)
(-1.3207e-05 -6.89542e-08 -6.21357e-06)
(1.31929e-05 -1.16719e-07 -6.21812e-06)
(1.51754e-06 -1.13593e-07 -1.03508e-05)
(2.20656e-07 -1.34639e-07 -9.74334e-06)
(3.36644e-08 -1.41703e-07 -9.66822e-06)
(6.37239e-09 -1.42679e-07 -9.67022e-06)
(2.68267e-09 -1.42876e-07 -9.67072e-06)
(1.78744e-09 -1.42939e-07 -9.67087e-06)
(1.39764e-09 -1.42835e-07 -9.67084e-06)
(1.14634e-09 -1.42797e-07 -9.67079e-06)
(8.2973e-10 -1.42944e-07 -9.67044e-06)
(4.15094e-10 -1.42863e-07 -9.67071e-06)
(2.44296e-10 -1.42236e-07 -9.67087e-06)
(4.40168e-10 -1.42937e-07 -9.67116e-06)
(3.08415e-10 -1.42956e-07 -9.67058e-06)
(9.66508e-12 -1.42387e-07 -9.67091e-06)
(-5.33795e-11 -1.42579e-07 -9.67061e-06)
(-4.0028e-10 -1.43089e-07 -9.67069e-06)
(-2.28844e-10 -1.42985e-07 -9.67122e-06)
(-1.43046e-10 -1.43158e-07 -9.67063e-06)
(-6.07439e-10 -1.42922e-07 -9.67066e-06)
(-8.41828e-10 -1.43467e-07 -9.67076e-06)
(-1.02018e-09 -1.42593e-07 -9.67087e-06)
(-1.38333e-09 -1.42814e-07 -9.67075e-06)
(-1.77395e-09 -1.42416e-07 -9.67101e-06)
(-2.51247e-09 -1.4295e-07 -9.67066e-06)
(-6.45323e-09 -1.42672e-07 -9.66995e-06)
(-3.38216e-08 -1.41379e-07 -9.66843e-06)
(-2.20839e-07 -1.34094e-07 -9.74272e-06)
(-1.51752e-06 -1.12978e-07 -1.0351e-05)
(-1.31931e-05 -1.16754e-07 -6.21783e-06)
(1.31678e-05 -1.8903e-07 -6.22525e-06)
(1.51146e-06 -1.85538e-07 -1.03503e-05)
(2.18151e-07 -2.18804e-07 -9.74432e-06)
(3.30763e-08 -2.28349e-07 -9.66916e-06)
(6.11147e-09 -2.29906e-07 -9.67115e-06)
(2.56972e-09 -2.31024e-07 -9.67192e-06)
(1.81433e-09 -2.30937e-07 -9.6721e-06)
(1.41857e-09 -2.30767e-07 -9.67206e-06)
(1.17182e-09 -2.30748e-07 -9.67199e-06)
(8.18912e-10 -2.30946e-07 -9.67157e-06)
(4.12749e-10 -2.30963e-07 -9.6719e-06)
(3.39676e-10 -2.30809e-07 -9.67217e-06)
(3.95101e-10 -2.30132e-07 -9.67205e-06)
(2.31577e-10 -2.3091e-07 -9.67187e-06)
(2.98635e-11 -2.30622e-07 -9.67198e-06)
(-9.67441e-11 -2.30814e-07 -9.67187e-06)
(-2.93139e-10 -2.31253e-07 -9.67202e-06)
(-2.2565e-10 -2.30101e-07 -9.67212e-06)
(-2.44812e-10 -2.31064e-07 -9.67197e-06)
(-6.39827e-10 -2.30943e-07 -9.67189e-06)
(-8.33066e-10 -2.32007e-07 -9.67232e-06)
(-9.6247e-10 -2.30999e-07 -9.67189e-06)
(-1.36747e-09 -2.30799e-07 -9.67196e-06)
(-1.79481e-09 -2.30574e-07 -9.67204e-06)
(-2.54044e-09 -2.3101e-07 -9.67186e-06)
(-6.21401e-09 -2.31027e-07 -9.67113e-06)
(-3.30524e-08 -2.28934e-07 -9.66938e-06)
(-2.18152e-07 -2.17774e-07 -9.74386e-06)
(-1.51164e-06 -1.85196e-07 -1.03505e-05)
(-1.31683e-05 -1.90168e-07 -6.22517e-06)
(1.31245e-05 -3.04335e-07 -6.23749e-06)
(1.50155e-06 -2.99586e-07 -1.0349e-05)
(2.14342e-07 -3.48937e-07 -9.74583e-06)
(3.21937e-08 -3.64992e-07 -9.67097e-06)
(5.88532e-09 -3.67185e-07 -9.67299e-06)
(2.53698e-09 -3.68001e-07 -9.67366e-06)
(1.86775e-09 -3.6763e-07 -9.67382e-06)
(1.4388e-09 -3.67426e-07 -9.67376e-06)
(1.18527e-09 -3.67435e-07 -9.67364e-06)
(7.93235e-10 -3.67632e-07 -9.6732e-06)
(3.82803e-10 -3.67832e-07 -9.67363e-06)
(3.75591e-10 -3.67986e-07 -9.67376e-06)
(3.83165e-10 -3.67409e-07 -9.67384e-06)
(2.10104e-10 -3.67655e-07 -9.67359e-06)
(4.17142e-11 -3.67422e-07 -9.67364e-06)
(-1.42873e-10 -3.67535e-07 -9.67364e-06)
(-2.34597e-10 -3.68325e-07 -9.67398e-06)
(-1.92755e-10 -3.67246e-07 -9.67391e-06)
(-2.89842e-10 -3.67713e-07 -9.67374e-06)
(-7.29438e-10 -3.67674e-07 -9.67358e-06)
(-8.56933e-10 -3.69657e-07 -9.67424e-06)
(-8.60082e-10 -3.68134e-07 -9.67356e-06)
(-1.33228e-09 -3.67492e-07 -9.67367e-06)
(-1.82739e-09 -3.67344e-07 -9.67366e-06)
(-2.58597e-09 -3.67894e-07 -9.67358e-06)
(-6.08113e-09 -3.68176e-07 -9.67304e-06)
(-3.20244e-08 -3.6511e-07 -9.6711e-06)
(-2.14152e-07 -3.48804e-07 -9.74528e-06)
(-1.50187e-06 -2.99182e-07 -1.03494e-05)
(-1.31249e-05 -3.05131e-07 -6.23726e-06)
(1.30503e-05 -4.85848e-07 -6.25669e-06)
(1.48585e-06 -4.82152e-07 -1.03468e-05)
(2.08828e-07 -5.55245e-07 -9.74693e-06)
(3.06869e-08 -5.79337e-07 -9.67285e-06)
(5.64155e-09 -5.82189e-07 -9.67489e-06)
(2.55705e-09 -5.83061e-07 -9.67588e-06)
(1.9561e-09 -5.82164e-07 -9.67577e-06)
(1.44527e-09 -5.82e-07 -9.67578e-06)
(1.17785e-09 -5.82076e-07 -9.67566e-06)
(7.50237e-10 -5.8224e-07 -9.6753e-06)
(3.46869e-10 -5.82718e-07 -9.67585e-06)
(3.94022e-10 -5.83134e-07 -9.67598e-06)
(3.82551e-10 -5.82416e-07 -9.67578e-06)
(2.15505e-10 -5.82401e-07 -9.67564e-06)
(6.94275e-11 -5.82059e-07 -9.67569e-06)
(-2.16834e-10 -5.82102e-07 -9.6757e-06)
(-2.04655e-10 -5.83554e-07 -9.67595e-06)
(-1.11133e-10 -5.82061e-07 -9.67579e-06)
(-3.13503e-10 -5.82269e-07 -9.67584e-06)
(-9.10214e-10 -5.82298e-07 -9.67562e-06)
(-9.04256e-10 -5.84058e-07 -9.67639e-06)
(-6.80614e-10 -5.8329e-07 -9.67583e-06)
(-1.27988e-09 -5.82077e-07 -9.67573e-06)
(-1.8798e-09 -5.81972e-07 -9.6757e-06)
(-2.65534e-09 -5.82862e-07 -9.67578e-06)
(-5.77195e-09 -5.83431e-07 -9.67501e-06)
(-3.0541e-08 -5.78944e-07 -9.67305e-06)
(-2.08692e-07 -5.56005e-07 -9.74682e-06)
(-1.48609e-06 -4.81657e-07 -1.03469e-05)
(-1.30504e-05 -4.86657e-07 -6.25685e-06)
(1.29257e-05 -7.73094e-07 -6.28818e-06)
(1.46144e-06 -7.76264e-07 -1.03426e-05)
(2.0122e-07 -8.84882e-07 -9.74893e-06)
(2.87969e-08 -9.17565e-07 -9.67573e-06)
(5.36541e-09 -9.21028e-07 -9.67771e-06)
(2.62356e-09 -9.22272e-07 -9.67915e-06)
(2.08128e-09 -9.20635e-07 -9.67845e-06)
(1.43696e-09 -9.20422e-07 -9.67862e-06)
(1.14164e-09 -9.20627e-07 -9.67857e-06)
(6.84284e-10 -9.20562e-07 -9.67848e-06)
(3.21199e-10 -9.21606e-07 -9.67909e-06)
(4.0931e-10 -9.22328e-07 -9.67936e-06)
(3.73869e-10 -9.21301e-07 -9.67877e-06)
(2.35364e-10 -9.21095e-07 -9.67854e-06)
(1.22442e-10 -9.20527e-07 -9.67855e-06)
(-3.42235e-10 -9.2048e-07 -9.67854e-06)
(-1.90093e-10 -9.21144e-07 -9.67889e-06)
(4.96482e-11 -9.20578e-07 -9.67861e-06)
(-3.23707e-10 -9.20623e-07 -9.67871e-06)
(-9.34358e-10 -9.20739e-07 -9.67849e-06)
(-9.62095e-10 -9.20926e-07 -9.67916e-06)
(-6.76013e-10 -9.22573e-07 -9.67928e-06)
(-1.21796e-09 -9.20486e-07 -9.67859e-06)
(-1.95594e-09 -9.2042e-07 -9.67856e-06)
(-2.77661e-09 -9.21914e-07 -9.67906e-06)
(-5.53634e-09 -9.21032e-07 -9.67787e-06)
(-2.86069e-08 -9.17901e-07 -9.67597e-06)
(-2.01042e-07 -8.84947e-07 -9.74889e-06)
(-1.46164e-06 -7.75765e-07 -1.03424e-05)
(-1.29254e-05 -7.74205e-07 -6.28875e-06)
(1.27246e-05 -1.22833e-06 -6.34365e-06)
(1.42572e-06 -1.25136e-06 -1.03402e-05)
(1.90931e-07 -1.40763e-06 -9.75732e-06)
(2.64325e-08 -1.45184e-06 -9.68533e-06)
(5.05383e-09 -1.45581e-06 -9.6871e-06)
(2.70341e-09 -1.45777e-06 -9.68864e-06)
(2.22531e-09 -1.45486e-06 -9.68801e-06)
(1.46578e-09 -1.45472e-06 -9.68801e-06)
(1.11857e-09 -1.45517e-06 -9.68822e-06)
(5.82171e-10 -1.4546e-06 -9.68798e-06)
(2.64086e-10 -1.45651e-06 -9.68825e-06)
(4.29622e-10 -1.4577e-06 -9.68871e-06)
(3.55201e-10 -1.45624e-06 -9.68851e-06)
(2.59618e-10 -1.45581e-06 -9.68806e-06)
(1.95878e-10 -1.4549e-06 -9.68788e-06)
(-2.34392e-10 -1.45476e-06 -9.68786e-06)
(-1.69824e-10 -1.45481e-06 -9.68814e-06)
(2.27104e-11 -1.45487e-06 -9.68796e-06)
(-3.25197e-10 -1.45472e-06 -9.68783e-06)
(-8.22375e-10 -1.45507e-06 -9.68788e-06)
(-1.03535e-09 -1.45548e-06 -9.68874e-06)
(-8.43687e-10 -1.45823e-06 -9.6889e-06)
(-1.14367e-09 -1.45474e-06 -9.68792e-06)
(-2.05025e-09 -1.45473e-06 -9.68793e-06)
(-2.69974e-09 -1.45716e-06 -9.6885e-06)
(-5.32591e-09 -1.45465e-06 -9.68677e-06)
(-2.63914e-08 -1.45071e-06 -9.68516e-06)
(-1.9071e-07 -1.40727e-06 -9.75703e-06)
(-1.42596e-06 -1.25079e-06 -1.03399e-05)
(-1.27238e-05 -1.2299e-06 -6.34379e-06)
(1.24203e-05 -1.94917e-06 -6.45397e-06)
(1.37767e-06 -2.0161e-06 -1.03624e-05)
(1.77541e-07 -2.23439e-06 -9.79662e-06)
(2.34702e-08 -2.29376e-06 -9.72664e-06)
(4.71962e-09 -2.2979e-06 -9.72816e-06)
(2.84937e-09 -2.29871e-06 -9.73013e-06)
(2.43738e-09 -2.296e-06 -9.72907e-06)
(1.51391e-09 -2.29623e-06 -9.72919e-06)
(1.10979e-09 -2.29713e-06 -9.7299e-06)
(3.76968e-10 -2.29569e-06 -9.72876e-06)
(1.10258e-10 -2.29646e-06 -9.72898e-06)
(4.81495e-10 -2.29838e-06 -9.72876e-06)
(3.83565e-10 -2.29852e-06 -9.72918e-06)
(2.88498e-10 -2.29796e-06 -9.72953e-06)
(2.67825e-10 -2.29652e-06 -9.72889e-06)
(-1.54882e-10 -2.29629e-06 -9.72887e-06)