/*--------------------------------*- C++ -*----------------------------------*\
| =========                 |                                                 |
| \\      /  F ield         | OpenFOAM: The Open Source CFD Toolbox           |
|  \\    /   O peration     | Version:  2106                                  |
|   \\  /    A nd           | Website:  www.openfoam.com                      |
|    \\/     M anipulation  |                                                 |
\*---------------------------------------------------------------------------*/
FoamFile
{
    version     2.0;
    format      ascii;
    arch        "LSB;label=32;scalar=64";
    class       volSymmTensorField;
    location    "609";
    object      epsilon;
}
// * * * * * * * * * * * * * * * * * * * * * * * * * * * * * * * * * * * * * //

dimensions      [0 0 0 0 0 0 0];

internalField   nonuniform List<symmTensor> 
9000
(
(-0.0855817 -0.000263572 0.0481632 -0.147117 0.0614081 -0.0253685)
(-0.0167735 0.000537776 0.00938466 -0.156475 0.0651288 -0.0697511)
(-0.0019293 0.000335731 0.00256668 -0.166385 0.0691563 -0.0595174)
(-0.000321067 5.06236e-05 0.000452688 -0.167997 0.0700448 -0.0573966)
(-5.53668e-05 -7.94186e-06 4.08099e-05 -0.168078 0.0700714 -0.0574087)
(-3.95265e-06 -2.04642e-06 1.84534e-05 -0.167896 0.0698599 -0.0576822)
(-1.38581e-06 -2.905e-08 2.59416e-05 -0.168021 0.0700235 -0.057567)
(3.59377e-09 -5.91407e-06 7.8946e-06 -0.167889 0.0698612 -0.0576817)
(-9.39019e-07 6.45321e-06 3.12904e-05 -0.167887 0.069858 -0.0576889)
(-6.55702e-06 6.63634e-06 -7.45093e-06 -0.168061 0.0700455 -0.0574704)
(2.40721e-06 -6.25613e-06 -4.90499e-05 -0.167943 0.0699284 -0.0575967)
(7.83778e-06 -5.36509e-07 3.95945e-05 -0.167762 0.069738 -0.0578359)
(-4.58598e-06 5.44864e-06 5.87502e-05 -0.168051 0.0700338 -0.0574977)
(-4.33923e-06 8.26191e-07 -3.02616e-05 -0.168068 0.0700427 -0.0574863)
(3.43552e-06 8.61697e-07 1.84049e-06 -0.167955 0.0699374 -0.0575805)
(-2.62334e-06 -1.18912e-06 3.04923e-05 -0.168064 0.0700474 -0.0574715)
(-2.15791e-06 3.36417e-07 -3.62537e-05 -0.168066 0.0700417 -0.0574914)
(1.76305e-08 7.56173e-07 -3.00539e-06 -0.167959 0.0699394 -0.0575721)
(-2.16675e-06 -6.66295e-06 -2.46133e-05 -0.168053 0.070039 -0.0574863)
(4.62809e-06 -6.37547e-06 -2.65201e-05 -0.167774 0.0697472 -0.0578006)
(2.73438e-06 5.81333e-06 3.96859e-05 -0.167874 0.0698513 -0.057714)
(-5.70587e-06 6.5306e-06 6.67656e-06 -0.16806 0.070039 -0.0574854)
(-3.51457e-06 -5.88391e-06 -3.22184e-05 -0.168065 0.070048 -0.0574679)
(4.79189e-08 -8.13318e-07 -2.69308e-05 -0.167901 0.0698654 -0.0576686)
(-7.81956e-06 1.65482e-06 -2.49088e-05 -0.168052 0.0700334 -0.0574952)
(-5.39149e-05 1.93828e-06 -9.41572e-05 -0.167912 0.0698905 -0.0576052)
(-0.000314523 -4.56791e-05 -0.000441022 -0.167867 0.0699201 -0.0575386)
(-0.00192991 -0.000335515 -0.00252902 -0.166381 0.0691448 -0.0595435)
(-0.0167763 -0.000536835 -0.00938306 -0.156473 0.0651278 -0.0697524)
(-0.085581 0.000263502 -0.0481642 -0.147117 0.0614037 -0.0253739)
(-0.072404 -1.13122e-05 0.0464801 -0.0980728 0.0681839 -0.128989)
(-0.0163975 0.000682488 0.00802585 -0.103197 0.0717486 -0.175005)
(-0.00180223 0.000432657 0.00154352 -0.109234 0.0762344 -0.171321)
(-0.000206437 7.09499e-05 0.000230568 -0.1104 0.077392 -0.170638)
(-2.73913e-05 -6.32122e-06 3.33071e-05 -0.110422 0.0774249 -0.170684)
(-4.53645e-06 -3.25815e-06 3.20134e-05 -0.110202 0.0773583 -0.170699)
(-2.14455e-06 5.12254e-07 2.61878e-05 -0.11037 0.0773696 -0.17071)
(-1.51781e-06 -1.71383e-06 -2.55982e-06 -0.110179 0.0773632 -0.170696)
(-7.68246e-07 2.06346e-06 3.41835e-05 -0.11018 0.0773563 -0.170702)
(-1.20393e-06 7.22891e-06 3.37794e-05 -0.110395 0.0773827 -0.170707)
(-4.72417e-07 3.33248e-06 -1.15318e-05 -0.110297 0.0775578 -0.170677)
(7.05818e-08 -5.88099e-06 4.18473e-06 -0.110076 0.0775225 -0.170667)
(-1.07682e-06 -6.99241e-06 2.36072e-05 -0.110393 0.0773655 -0.17071)
(-7.80644e-07 6.30171e-06 1.72859e-06 -0.11037 0.0772302 -0.170691)
(1.32073e-07 3.75065e-06 -1.47165e-06 -0.110309 0.0775713 -0.17068)
(-3.67577e-07 -9.0175e-06 -2.02998e-06 -0.110398 0.0773873 -0.17071)
(-2.30649e-07 5.16321e-06 -7.3876e-07 -0.110369 0.0772291 -0.170693)
(-1.64329e-07 3.80898e-06 -3.34377e-06 -0.110313 0.0775725 -0.170675)
(-7.61691e-07 -2.14477e-06 -2.44471e-05 -0.110384 0.0773731 -0.17071)
(-8.07222e-07 -1.91952e-06 -2.77693e-05 -0.110084 0.0775428 -0.170665)
(-8.13503e-07 -4.15646e-06 4.75607e-06 -0.110164 0.077344 -0.170691)
(-9.62245e-07 1.91846e-06 4.92459e-06 -0.110405 0.0773726 -0.170713)
(-1.13971e-06 -1.0905e-06 -3.77562e-05 -0.110397 0.0773875 -0.170708)
(-1.61334e-06 -1.74161e-06 -2.32759e-05 -0.110196 0.077366 -0.170694)
(-5.22191e-06 3.41935e-06 -2.96941e-05 -0.110398 0.0773625 -0.170711)
(-2.776e-05 9.92894e-06 -5.17718e-05 -0.110214 0.0774082 -0.170669)
(-0.000206207 -7.34533e-05 -0.0002102 -0.110288 0.0775552 -0.170607)
(-0.00180237 -0.00043764 -0.00154552 -0.109198 0.0760743 -0.171319)
(-0.0163975 -0.000679153 -0.00802848 -0.103195 0.0717466 -0.175003)
(-0.0724029 1.12912e-05 -0.0464807 -0.0980764 0.0681736 -0.128989)
(-0.0763053 0.00117271 0.046747 -0.0575544 0.0581662 -0.153403)
(-0.0165235 0.000871387 0.00786573 -0.060217 0.0606475 -0.201966)
(-0.00180449 0.000519486 0.00136893 -0.0633659 0.0647178 -0.199929)
(-0.000186607 9.82028e-05 0.000170308 -0.0641019 0.0658945 -0.199628)
(-1.85682e-05 -8.81836e-07 5.6996e-05 -0.064104 0.0659377 -0.199687)
(-4.73431e-06 -5.14538e-06 3.54024e-05 -0.0639983 0.0660473 -0.199648)
(-2.06943e-06 2.1906e-06 2.5286e-05 -0.0640744 0.0658768 -0.199696)
(-2.32129e-06 4.48431e-06 2.21252e-05 -0.063992 0.066145 -0.199667)
(-1.51958e-06 -2.85666e-06 7.87691e-06 -0.0640005 0.0661377 -0.199671)
(1.17887e-06 -2.76793e-06 9.22352e-06 -0.0640767 0.0658981 -0.199701)
(-7.63929e-07 3.23625e-06 1.84093e-05 -0.0640653 0.065873 -0.199687)
(-3.44142e-06 -2.69199e-06 4.5903e-06 -0.0639774 0.0661196 -0.199649)
(-3.33718e-07 -3.44979e-06 -2.00994e-05 -0.0640564 0.0657881 -0.199656)
(1.37956e-06 3.83595e-06 5.14702e-07 -0.0640082 0.0659011 -0.199683)
(-9.30502e-07 5.19087e-07 1.20672e-05 -0.0640703 0.0658891 -0.199691)
(-1.12179e-07 -1.07143e-06 -1.69793e-05 -0.0640786 0.0659042 -0.199702)
(1.05433e-06 4.5851e-07 2.72962e-07 -0.0640078 0.0658998 -0.199686)
(3.10426e-07 2.8921e-07 1.16858e-05 -0.0640723 0.0658884 -0.199691)
(-4.14701e-07 2.33998e-06 3.00884e-06 -0.0640706 0.0658883 -0.1997)
(-3.13043e-06 2.80552e-06 -7.33298e-07 -0.0639813 0.0661245 -0.199653)
(-2.75256e-06 -5.52271e-06 -2.1355e-05 -0.0639825 0.0661391 -0.199657)
(1.05954e-06 -2.5536e-06 -2.33634e-05 -0.0640674 0.0657969 -0.199683)
(9.20924e-08 5.08926e-06 -1.30925e-05 -0.0640768 0.0659049 -0.199703)
(-2.41859e-06 -3.97624e-06 -2.13485e-05 -0.064011 0.0661446 -0.199667)
(-4.07419e-06 4.04089e-06 -3.04594e-05 -0.0640716 0.0657867 -0.199676)
(-2.02626e-05 4.63354e-06 -4.69389e-05 -0.0640238 0.0661857 -0.19965)
(-0.000188798 -0.000102349 -0.000189777 -0.0640791 0.0658573 -0.19961)
(-0.00180355 -0.00051923 -0.0013758 -0.0632929 0.0646982 -0.199916)
(-0.0165222 -0.00087193 -0.00785523 -0.060215 0.0606456 -0.201963)
(-0.0763025 -0.00117249 -0.0467467 -0.0575637 0.0581533 -0.153405)
(-0.0818785 0.00181545 0.0483698 -0.0351669 0.0409098 -0.154293)
(-0.0170827 0.000880198 0.00813839 -0.0372329 0.0422672 -0.205378)
(-0.0018664 0.000494915 0.00148861 -0.0391077 0.0456086 -0.203493)
(-0.000206505 0.000100429 0.000190883 -0.0396307 0.0464869 -0.203203)
(-2.03418e-05 -7.66872e-07 4.21542e-05 -0.0396399 0.0465333 -0.203268)
(-3.85618e-06 -6.74614e-06 3.59385e-05 -0.0395809 0.0464301 -0.203236)
(-2.1979e-06 1.27593e-06 3.37438e-05 -0.0396052 0.0464178 -0.203264)
(-2.18241e-06 1.54302e-06 1.90836e-05 -0.0396223 0.0465022 -0.203286)
(-1.09843e-06 5.02036e-07 1.24264e-05 -0.0396166 0.0464286 -0.203248)
(7.3848e-07 3.47051e-07 1.16047e-05 -0.0396147 0.0465019 -0.20328)
(-1.28093e-06 -1.97148e-06 1.46343e-05 -0.0396097 0.0464886 -0.203276)
(-3.00622e-06 7.61355e-07 -4.68909e-06 -0.0396143 0.04648 -0.203253)
(2.35618e-07 5.93842e-06 -3.72599e-06 -0.0395691 0.046503 -0.203259)
(9.27047e-07 1.02465e-06 1.03682e-05 -0.0395902 0.0466677 -0.203285)
(-1.07588e-06 -3.48037e-06 -7.48919e-07 -0.0396076 0.0465028 -0.203279)
(6.42303e-08 4.09403e-06 -3.77657e-06 -0.0396161 0.0465084 -0.203283)
(8.57582e-07 -6.11494e-07 -1.42655e-07 -0.0395909 0.0466662 -0.203289)
(2.20794e-08 -4.22649e-06 -1.33313e-07 -0.0396078 0.0465024 -0.20328)
(-6.8475e-07 -1.56088e-06 -1.23943e-06 -0.0396116 0.0464929 -0.203257)
(-2.7775e-06 -7.48629e-07 -5.54213e-06 -0.039616 0.0464906 -0.203279)
(-2.24849e-06 1.11648e-06 -2.62122e-05 -0.0396178 0.0464922 -0.203261)
(9.19168e-07 1.56856e-06 -1.97999e-05 -0.0395798 0.0464967 -0.203252)
(-3.59007e-07 -1.26969e-06 -6.96156e-06 -0.0396122 0.0465106 -0.203284)
(-2.2985e-06 -3.8454e-06 -3.07262e-05 -0.0396215 0.0464327 -0.20327)
(-3.19542e-06 4.85754e-06 -3.09159e-05 -0.0395743 0.0464203 -0.203228)
(-2.15648e-05 1.94694e-07 -3.57576e-05 -0.0396476 0.0465321 -0.203265)
(-0.000208624 -9.76796e-05 -0.000192534 -0.0396171 0.0464615 -0.203193)
(-0.00186627 -0.000492485 -0.00149622 -0.0390839 0.045751 -0.203466)
(-0.0170807 -0.000885556 -0.00814207 -0.0372314 0.0422657 -0.205375)
(-0.0818827 -0.00181474 -0.0483679 -0.0351574 0.0408329 -0.154278)
(-0.0860591 0.00177846 0.0503703 -0.0220583 0.0263846 -0.152286)
(-0.0177674 0.000770702 0.00855222 -0.0235782 0.0267741 -0.205728)
(-0.00194991 0.000412451 0.00165984 -0.0249319 0.0293919 -0.203766)
(-0.000234372 8.6288e-05 0.000211272 -0.025287 0.0299608 -0.203435)
(-2.56613e-05 5.38706e-06 4.12067e-05 -0.0252881 0.0299508 -0.203495)
(-3.53891e-06 -4.72421e-06 2.45082e-05 -0.025244 0.0300952 -0.203526)
(-1.82947e-06 -2.83043e-06 3.26082e-05 -0.0252446 0.0299182 -0.203504)
(-1.93413e-06 2.23591e-06 1.79318e-05 -0.0252822 0.0299931 -0.203528)
(-6.05355e-07 -1.54193e-07 1.36559e-05 -0.0252559 0.0299944 -0.203516)
(5.25221e-08 -2.19384e-06 2.10569e-05 -0.025285 0.0299828 -0.203503)
(-1.47385e-06 -2.05516e-06 1.22135e-05 -0.0252669 0.0299221 -0.203506)
(-2.21767e-06 3.97665e-06 3.50431e-06 -0.0252826 0.0299833 -0.203511)
(6.29643e-08 4.91483e-06 -2.76212e-06 -0.0252725 0.0300809 -0.20353)
(6.14928e-07 -1.2235e-06 2.19473e-06 -0.0252996 0.0300087 -0.203526)
(-9.95142e-07 -2.14509e-06 7.83033e-07 -0.0252772 0.0299866 -0.20352)
(-8.26104e-08 2.53518e-06 -4.48941e-06 -0.0252876 0.0299879 -0.203521)
(8.14495e-07 -3.34775e-07 -7.82964e-07 -0.0253002 0.0300074 -0.203529)
(-2.47219e-07 -3.44129e-06 1.18309e-06 -0.0252768 0.0299862 -0.203522)
(-1.01084e-06 -1.71426e-06 -3.18466e-06 -0.0252846 0.0299813 -0.203492)
(-1.92369e-06 -1.03993e-07 -7.4626e-06 -0.0252815 0.0299856 -0.203523)
(-1.55361e-06 2.74527e-06 -1.4528e-05 -0.0252819 0.0299913 -0.203518)
(-5.89798e-08 1.87188e-06 -1.74392e-05 -0.0252601 0.0300315 -0.203519)
(-9.84649e-07 -1.16051e-06 -2.53958e-05 -0.0252787 0.029991 -0.203525)
(-1.47028e-06 -1.00311e-06 -3.06753e-05 -0.0252634 0.0299901 -0.203518)
(-2.87117e-06 2.49253e-06 -2.08229e-05 -0.02524 0.0300228 -0.203506)
(-2.6622e-05 -4.79554e-06 -3.63394e-05 -0.0253028 0.0300102 -0.203504)
(-0.000235985 -8.64128e-05 -0.000213271 -0.0252854 0.0299429 -0.203424)
(-0.00195001 -0.000409587 -0.00166446 -0.024949 0.0294057 -0.203761)
(-0.0177644 -0.000771828 -0.00856479 -0.0235775 0.0267725 -0.205727)
(-0.086066 -0.00177648 -0.0503578 -0.0220264 0.0263747 -0.152276)
(-0.0887437 0.00139832 0.0521187 -0.0139506 0.0164673 -0.151259)
(-0.0183643 0.000609143 0.00895341 -0.0148826 0.0163783 -0.206542)
(-0.00203142 0.000319862 0.00181239 -0.0159395 0.0181858 -0.204479)
(-0.000259154 7.37031e-05 0.000234099 -0.0161926 0.0187143 -0.204177)
(-3.10364e-05 7.86876e-06 4.90195e-05 -0.0161813 0.0187551 -0.204246)
(-4.04255e-06 -2.50273e-06 3.05814e-05 -0.0161989 0.0188345 -0.204285)
(-1.4709e-06 -3.85664e-06 2.50666e-05 -0.0161537 0.0187605 -0.204265)
(-1.72144e-06 1.53274e-06 2.48501e-05 -0.0161938 0.0187483 -0.204273)
(-1.03344e-06 -1.66875e-06 1.35802e-05 -0.0161863 0.0188193 -0.204284)
(-2.27179e-07 -2.86095e-06 5.3505e-06 -0.0161863 0.0186968 -0.204259)
(-1.00041e-06 -1.62971e-06 1.09659e-05 -0.0161655 0.0187371 -0.204262)
(-1.57021e-06 1.40587e-07 1.0817e-05 -0.0161881 0.0186947 -0.204235)
(2.04324e-08 4.83577e-06 -7.82358e-07 -0.0162058 0.0187059 -0.20426)
(2.25802e-07 8.52121e-07 3.38656e-06 -0.0162061 0.0187613 -0.20427)
(-1.02487e-06 -2.54746e-06 9.3786e-07 -0.0161926 0.0187433 -0.204266)
(-1.22009e-07 1.85076e-06 -3.7012e-06 -0.0161901 0.0186968 -0.204257)
(5.0635e-07 8.10744e-07 -1.45e-06 -0.0162061 0.0187596 -0.204272)
(-4.37881e-07 -4.24808e-06 -2.61264e-07 -0.016192 0.018744 -0.204268)
(-8.55809e-07 -1.485e-06 -4.31097e-06 -0.0161896 0.0186947 -0.204236)
(-1.59525e-06 1.34235e-06 -7.49294e-06 -0.0161986 0.0187424 -0.204267)
(-1.22454e-06 2.9623e-06 -2.17539e-05 -0.0162016 0.0187454 -0.204248)
(1.08771e-07 1.87941e-06 -1.62221e-05 -0.0161826 0.0187552 -0.204271)
(-1.45194e-06 -4.21491e-07 -8.42609e-06 -0.0161926 0.018747 -0.204273)
(-1.72891e-06 6.66494e-07 -3.18794e-05 -0.0161836 0.0187724 -0.204252)
(-2.90138e-06 4.27435e-07 -2.84318e-05 -0.0161748 0.0187744 -0.204266)
(-3.19662e-05 -8.26084e-06 -3.6688e-05 -0.0162121 0.0187567 -0.204246)
(-0.00026055 -7.23555e-05 -0.00024536 -0.0161883 0.0186555 -0.204135)
(-0.00203101 -0.000316588 -0.00181469 -0.015948 0.0181947 -0.204496)
(-0.0183611 -0.000607697 -0.00895599 -0.0148824 0.0163769 -0.206539)
(-0.0887428 -0.00139737 -0.0521053 -0.0139381 0.0165327 -0.151263)
(-0.090401 0.000964925 0.0534029 -0.00882086 0.010239 -0.150979)
(-0.0188006 0.000448218 0.00928417 -0.00929877 0.00999159 -0.207534)
(-0.0020983 0.000237833 0.00192723 -0.0101002 0.0113136 -0.20547)
(-0.000278734 5.82766e-05 0.000274998 -0.0103127 0.0116679 -0.205149)
(-3.63533e-05 6.78296e-06 5.18837e-05 -0.0103202 0.0117616 -0.205217)
(-4.60186e-06 -1.00307e-06 2.14991e-05 -0.0103374 0.011719 -0.205249)
(-1.09614e-06 -2.69364e-06 2.48493e-05 -0.0103014 0.0117583 -0.205235)
(-1.7753e-06 -1.38389e-06 2.44132e-05 -0.0103187 0.0116984 -0.205248)
(-9.87687e-07 -2.52795e-07 5.78084e-06 -0.0103283 0.0117068 -0.20525)
(-2.8088e-07 -1.9311e-07 1.24018e-05 -0.0102969 0.0116963 -0.205244)
(-1.36275e-06 -1.7627e-06 9.52451e-06 -0.0103069 0.0117503 -0.205253)
(-7.93754e-07 -1.75012e-06 -3.38047e-06 -0.0103022 0.0116942 -0.205235)
(6.0619e-07 2.88314e-06 8.9073e-06 -0.010303 0.0116623 -0.205231)
(-4.99387e-07 5.22827e-07 1.06434e-05 -0.0103256 0.0117067 -0.205244)
(-1.16031e-06 -9.05308e-07 -6.71811e-06 -0.0103184 0.0116951 -0.205242)
(1.95927e-07 1.4354e-06 -2.75083e-06 -0.0102999 0.0116956 -0.205239)
(-7.90901e-08 -3.8866e-07 5.60988e-06 -0.0103255 0.0117052 -0.205245)
(-7.27103e-07 -2.69819e-06 -9.81241e-06 -0.0103178 0.0116958 -0.205244)
(-2.45215e-07 -1.93246e-06 -4.79842e-06 -0.0103038 0.0116935 -0.20524)
(-1.0504e-06 -8.68618e-07 4.85568e-07 -0.0103142 0.0116521 -0.205233)
(-1.08752e-06 4.8146e-06 -1.34487e-05 -0.0103211 0.0116577 -0.205216)
(-5.89151e-07 2.98923e-06 -1.49158e-05 -0.0103187 0.0117642 -0.205257)
(-1.8015e-06 -1.33218e-06 -2.38706e-05 -0.0103179 0.0116988 -0.205249)
(-1.18874e-06 2.01669e-06 -3.17832e-05 -0.0103104 0.0117078 -0.205242)
(-3.49116e-06 -1.36282e-06 -1.98278e-05 -0.0103058 0.0117271 -0.205241)
(-3.6811e-05 -8.79237e-06 -4.69035e-05 -0.0103224 0.0116603 -0.20521)
(-0.000279559 -5.41171e-05 -0.000277644 -0.0103008 0.0116592 -0.205114)
(-0.0020982 -0.000235729 -0.00192327 -0.0101056 0.011317 -0.205465)
(-0.0187986 -0.000447761 -0.00928701 -0.00929991 0.00998948 -0.207529)
(-0.0903961 -0.000966222 -0.0533973 -0.00882776 0.0102508 -0.150984)
(-0.0914198 0.00061306 0.0542524 -0.00556894 0.00639946 -0.150955)
(-0.019087 0.000311209 0.0095469 -0.00576967 0.00614849 -0.208325)
(-0.00214853 0.00017225 0.00201497 -0.00637961 0.00711471 -0.206271)
(-0.000293546 4.1716e-05 0.000287086 -0.0065381 0.00732554 -0.205942)
(-3.98124e-05 5.4408e-06 5.41553e-05 -0.00655962 0.00736331 -0.206008)
(-5.18638e-06 1.0632e-06 2.75732e-05 -0.00655832 0.00736565 -0.206043)
(-1.27618e-06 -1.94337e-06 2.31669e-05 -0.00655262 0.00741124 -0.206052)
(-1.45204e-06 -2.09711e-06 1.77244e-05 -0.00654619 0.00735174 -0.206045)
(-8.51295e-07 1.55599e-06 1.29368e-05 -0.00655187 0.00735824 -0.206046)
(-6.62601e-07 -2.63469e-07 1.17326e-05 -0.00653863 0.0074011 -0.20605)
(-1.37118e-06 -2.22507e-06 8.11975e-06 -0.00654996 0.00735567 -0.206044)
(-4.16888e-07 1.40108e-06 -3.13529e-06 -0.00653414 0.00736127 -0.20604)
(6.55951e-07 1.1699e-06 3.37662e-06 -0.0065275 0.00740507 -0.206043)
(-5.24317e-07 -2.37364e-06 1.03435e-05 -0.00654959 0.00735677 -0.206041)
(-1.04331e-06 9.33384e-07 8.90324e-08 -0.006547 0.00734878 -0.206041)
(-1.14578e-07 1.18069e-06 -1.95945e-06 -0.00653993 0.00739977 -0.206048)
(-3.09231e-07 -1.95617e-06 -1.70462e-06 -0.00654939 0.00735543 -0.206043)
(-7.72867e-07 -1.31538e-06 -3.82473e-06 -0.00654555 0.00734992 -0.206042)
(-4.88094e-07 -4.3991e-07 -1.22134e-05 -0.00653923 0.00735982 -0.206041)
(-4.01809e-07 -1.24695e-06 -1.41759e-05 -0.00652984 0.00734782 -0.206035)
(-2.89932e-07 2.48502e-06 -5.02129e-06 -0.00652631 0.00731335 -0.206031)
(-9.19758e-07 2.31308e-06 -6.25341e-06 -0.00655696 0.0073638 -0.206046)
(-2.13215e-06 8.88332e-07 -1.71388e-05 -0.00654567 0.00735281 -0.206046)
(-1.53057e-06 3.69607e-06 -3.10986e-05 -0.00654602 0.00740897 -0.206052)
(-4.16702e-06 -1.75172e-06 -3.35512e-05 -0.00654181 0.00741736 -0.206044)
(-3.96118e-05 -9.23823e-06 -4.3533e-05 -0.00653402 0.00735319 -0.206011)
(-0.000294105 -4.02169e-05 -0.000280485 -0.00653284 0.00732891 -0.205934)
(-0.00214888 -0.000170888 -0.00201685 -0.00638388 0.0071152 -0.206263)
(-0.0190861 -0.000310657 -0.00955085 -0.00577201 0.00614717 -0.2083)
(-0.0914164 -0.000614485 -0.0542497 -0.00557325 0.00640852 -0.150959)
(-0.0920471 0.00036996 0.0547787 -0.00351606 0.00401509 -0.150979)
(-0.0192624 0.000204708 0.00972403 -0.00357498 0.00381588 -0.208848)
(-0.00218268 0.000122105 0.00208006 -0.00402847 0.0044424 -0.206796)
(-0.000304592 3.07372e-05 0.000301445 -0.00413991 0.00462441 -0.206478)
(-4.23758e-05 4.30596e-06 5.49737e-05 -0.00415757 0.0046528 -0.20656)
(-5.66239e-06 9.19429e-07 2.75827e-05 -0.00415604 0.00465383 -0.20658)
(-1.41138e-06 -1.27985e-06 2.22458e-05 -0.00416125 0.00465823 -0.206586)
(-1.21953e-06 -1.25193e-06 1.75666e-05 -0.00414857 0.00464593 -0.206585)
(-8.13616e-07 8.74373e-07 1.34548e-05 -0.00415156 0.00464934 -0.206583)
(-1.05509e-06 -2.29183e-07 1.15963e-05 -0.00415498 0.00465338 -0.20657)
(-1.08787e-06 -5.80867e-07 8.12537e-08 -0.00415089 0.00465006 -0.206581)
(1.2622e-07 2.36655e-06 3.80143e-06 -0.00413935 0.00465191 -0.206577)
(1.30435e-07 -2.05743e-09 1.09682e-05 -0.00415157 0.00469854 -0.206586)
(-7.18227e-07 -3.41556e-06 2.90901e-06 -0.0041503 0.00464939 -0.20658)
(-6.38536e-07 3.38565e-07 1.47488e-07 -0.00415255 0.00464355 -0.206581)
(-2.8536e-07 1.21347e-06 -1.32004e-06 -0.00415474 0.00465239 -0.206571)
(-6.80937e-07 -1.2048e-06 -2.23584e-06 -0.00414977 0.00464846 -0.206582)
(-5.36445e-07 -1.10975e-06 -1.09314e-05 -0.00414874 0.00464429 -0.206582)
(-1.27931e-07 1.0341e-06 -5.46708e-06 -0.00413652 0.00461593 -0.206557)
(-4.65087e-07 1.77808e-06 -7.89806e-06 -0.00414673 0.0046873 -0.206584)
(-2.3256e-07 5.63351e-07 -1.05821e-05 -0.00412975 0.00469119 -0.206584)
(-9.17714e-07 -7.25387e-07 -5.28577e-06 -0.00415496 0.00465473 -0.206583)
(-1.93715e-06 5.98048e-07 -1.72757e-05 -0.00414821 0.0046474 -0.206585)
(-1.48889e-06 3.71647e-06 -2.32008e-05 -0.0041584 0.00465678 -0.206585)
(-5.43111e-06 2.33149e-07 -2.68792e-05 -0.00416094 0.00470574 -0.206584)
(-4.24246e-05 -8.46449e-06 -6.04765e-05 -0.00414611 0.00469061 -0.206561)
(-0.000304298 -3.18015e-05 -0.000301526 -0.00412936 0.00458792 -0.206463)
(-0.00218286 -0.000120977 -0.00207404 -0.00403126 0.00444103 -0.206788)
(-0.0192625 -0.000203798 -0.00972589 -0.00357576 0.00381306 -0.208843)
(-0.092046 -0.000370892 -0.0547783 -0.00351671 0.00402165 -0.150982)
(-0.0924327 0.00021689 0.0550923 -0.00222663 0.00251806 -0.151002)
(-0.0193654 0.00013023 0.00983959 -0.00222322 0.00237786 -0.209169)
(-0.00220448 8.45858e-05 0.00212676 -0.00254186 0.00279347 -0.207125)
(-0.000312567 2.20094e-05 0.000312087 -0.00262687 0.00292188 -0.206815)
(-4.42842e-05 3.24953e-06 5.74318e-05 -0.00264492 0.00294346 -0.206888)
(-6.06762e-06 1.05348e-06 2.78643e-05 -0.00264022 0.00294306 -0.206919)
(-1.54757e-06 -7.77149e-07 2.16434e-05 -0.00264283 0.0029464 -0.206923)
(-1.11482e-06 -8.2855e-07 1.69874e-05 -0.00263531 0.00293857 -0.206924)
(-7.82723e-07 2.62322e-07 1.34414e-05 -0.00263669 0.00294049 -0.206923)
(-9.52879e-07 -2.0187e-07 1.13727e-05 -0.00263953 0.00294498 -0.206911)
(-9.03288e-07 1.15547e-06 6.63497e-06 -0.00263702 0.0029414 -0.206919)
(-9.31616e-08 1.46759e-06 4.37074e-06 -0.00263667 0.00298379 -0.206922)
(-2.51474e-07 -1.25254e-06 4.36225e-06 -0.00264595 0.00295031 -0.206919)
(-6.27134e-07 -3.09401e-06 1.992e-06 -0.00263622 0.00294137 -0.206919)
(-2.60134e-07 3.70042e-08 -9.64277e-08 -0.00263225 0.00290198 -0.206915)
(-3.20071e-07 1.80374e-06 -7.66929e-07 -0.00263809 0.00294344 -0.206922)
(-9.02368e-07 -8.93536e-07 -2.43371e-06 -0.0026355 0.00294107 -0.206922)
(-4.47651e-07 1.21299e-06 -1.14986e-05 -0.00263842 0.00293768 -0.206921)
(1.92503e-07 1.39251e-08 -5.21833e-06 -0.00262046 0.00298362 -0.20692)
(-3.82459e-07 2.49793e-07 -6.86476e-07 -0.00263745 0.00290667 -0.206914)
(-6.08593e-07 1.33955e-06 -9.82995e-06 -0.0026414 0.00298517 -0.206925)
(-9.9826e-07 -1.45879e-06 -1.17797e-05 -0.00264008 0.00294403 -0.20692)
(-1.57558e-06 4.22141e-07 -1.70888e-05 -0.00263507 0.00294019 -0.206924)
(-1.50784e-06 2.15038e-06 -2.21227e-05 -0.00264176 0.00294618 -0.206922)
(-6.18594e-06 -8.43165e-08 -2.71383e-05 -0.0026514 0.00295261 -0.206917)
(-4.44958e-05 -4.2596e-06 -6.30576e-05 -0.00264317 0.00294336 -0.206895)
(-0.000311964 -2.32306e-05 -0.000312352 -0.00261958 0.00296121 -0.206806)
(-0.0022045 -8.54673e-05 -0.00212026 -0.00254472 0.00279081 -0.207118)
(-0.0193662 -0.000128938 -0.00984118 -0.00222226 0.00237525 -0.209167)
(-0.0924334 -0.000217297 -0.0550937 -0.00222277 0.00252285 -0.151004)
(-0.0926728 0.000125672 0.0552747 -0.00140797 0.00153199 -0.151013)
(-0.0194245 8.15967e-05 0.00991149 -0.00139483 0.00147863 -0.209361)
(-0.00221789 5.71602e-05 0.00215941 -0.00161377 0.00174783 -0.207328)
(-0.000318214 1.4704e-05 0.000319641 -0.00167742 0.00183726 -0.207022)
(-4.55362e-05 2.28357e-06 5.74584e-05 -0.00168597 0.00181607 -0.207104)
(-6.32429e-06 1.73338e-06 2.8443e-05 -0.00168903 0.0018517 -0.207129)
(-1.75067e-06 -3.85077e-07 2.1239e-05 -0.00168974 0.00185345 -0.207132)
(-1.09239e-06 -5.2329e-07 1.6488e-05 -0.00168527 0.00184941 -0.207133)
(-7.60873e-07 9.91906e-08 1.30118e-05 -0.0016858 0.00185108 -0.207134)
(-8.40799e-07 -2.43863e-07 1.09525e-05 -0.00168651 0.00185343 -0.207133)
(-7.57474e-07 3.38754e-07 7.07491e-06 -0.00168731 0.00185093 -0.207129)
(-2.12056e-07 9.84554e-07 5.05264e-06 -0.00169782 0.00185568 -0.207128)
(-6.47934e-07 -3.09853e-07 4.29927e-06 -0.001692 0.00185739 -0.207126)
(-5.87093e-07 -1.32259e-06 -5.59988e-06 -0.00168577 0.00185188 -0.207129)
(2.70152e-07 1.1706e-07 -1.01965e-07 -0.00167403 0.00184886 -0.207125)
(-4.00759e-07 6.48409e-07 6.43211e-06 -0.001686 0.00185403 -0.207131)
(-9.39693e-07 -1.45717e-06 -2.67254e-06 -0.00168493 0.00185222 -0.207131)
(-4.29484e-07 2.02134e-06 -4.82412e-06 -0.00168146 0.00181535 -0.207127)
(-1.63491e-07 1.41519e-06 -1.16444e-05 -0.00168744 0.00189605 -0.207133)
(-1.10224e-07 -2.07942e-06 -6.9632e-06 -0.00167716 0.0018523 -0.207123)
(-4.76495e-07 4.61065e-08 -2.7663e-06 -0.00169118 0.00182396 -0.207125)
(-1.16591e-06 6.53218e-08 -1.21218e-05 -0.00169024 0.0018517 -0.207128)
(-1.41108e-06 4.39758e-07 -1.68806e-05 -0.00168514 0.00185114 -0.207133)
(-1.56455e-06 1.18357e-06 -2.13066e-05 -0.00168949 0.00185384 -0.207131)
(-6.53398e-06 -3.35306e-07 -2.72006e-05 -0.00169473 0.00185764 -0.207125)
(-4.60136e-05 -3.14982e-06 -5.81677e-05 -0.00169191 0.00185187 -0.207103)
(-0.000317739 -1.68346e-05 -0.000320853 -0.00168387 0.0018419 -0.207012)
(-0.00221763 -5.76992e-05 -0.00215965 -0.0016188 0.00174471 -0.207322)
(-0.0194255 -7.90683e-05 -0.00991323 -0.00139387 0.00147675 -0.209361)
(-0.0926707 -0.000125133 -0.0552777 -0.00141228 0.00157335 -0.151021)
(-0.0928194 7.21934e-05 0.0553749 -0.000895812 0.000965388 -0.151023)
(-0.0194581 4.83795e-05 0.00996469 -0.000890615 0.000907259 -0.209477)
(-0.00222608 3.74398e-05 0.00218149 -0.00104009 0.00107787 -0.207452)
(-0.000322032 1.09202e-05 0.000318657 -0.00108732 0.00113844 -0.207149)
(-4.62229e-05 1.45495e-06 5.81513e-05 -0.0010863 0.00114739 -0.207232)
(-6.51217e-06 4.53711e-07 3.53508e-05 -0.00109827 0.00114659 -0.207258)
(-2.01503e-06 -3.20449e-08 2.1041e-05 -0.00109706 0.00114814 -0.207261)
(-1.08059e-06 -2.66598e-07 1.61873e-05 -0.0010943 0.00114639 -0.207263)
(-7.52865e-07 1.95931e-07 1.29901e-05 -0.00109463 0.00114797 -0.207263)
(-8.48225e-07 -3.58708e-07 1.07217e-05 -0.00109533 0.00115016 -0.207261)
(-6.38191e-07 -8.48497e-07 7.23581e-06 -0.00109723 0.00114646 -0.207258)
(-1.64083e-07 7.90124e-07 5.51405e-06 -0.00109634 0.00111655 -0.207253)
(-6.7428e-07 7.69592e-07 4.12543e-06 -0.00109814 0.00115076 -0.207256)
(-6.02497e-07 5.68179e-08 5.66651e-07 -0.00109485 0.00114845 -0.207258)
(1.37836e-07 1.28762e-07 1.42796e-07 -0.00109633 0.00118222 -0.207259)
(-5.99763e-07 -3.00848e-07 2.42219e-07 -0.0010963 0.00115004 -0.207258)
(-7.48779e-07 -1.59211e-07 -9.679e-06 -0.0010945 0.00114932 -0.207258)
(7.92471e-08 1.13347e-06 -4.43647e-06 -0.00108159 0.00114817 -0.207256)
(-4.8267e-07 1.0101e-06 1.81171e-06 -0.00110301 0.00115646 -0.207259)
(-5.78663e-07 -5.07777e-07 -1.36828e-05 -0.00109763 0.0011844 -0.207257)
(-1.59317e-07 -1.34095e-06 -9.35756e-06 -0.00108681 0.00115348 -0.207253)
(-9.70889e-07 -6.52884e-07 -5.71576e-06 -0.0011012 0.0011467 -0.207258)
(-1.44152e-06 6.12787e-07 -1.65938e-05 -0.00109421 0.00114832 -0.207262)
(-1.66039e-06 5.81132e-07 -2.09125e-05 -0.00109742 0.00114858 -0.20726)
(-6.99238e-06 -6.46429e-07 -2.74105e-05 -0.00109975 0.00115039 -0.207254)
(-4.71598e-05 -2.62786e-06 -6.59421e-05 -0.00110185 0.00114613 -0.207231)
(-0.000321258 -1.21019e-05 -0.000327014 -0.00108201 0.00110716 -0.207133)
(-0.00222517 -3.74958e-05 -0.00217539 -0.00103689 0.00104127 -0.207443)
(-0.0194592 -4.65565e-05 -0.00995647 -0.000890232 0.000906756 -0.209476)
(-0.0928151 -7.10372e-05 -0.0553833 -0.000908902 0.000965136 -0.151033)
(-0.0929006 4.04949e-05 0.0554422 -0.000606679 0.000609749 -0.151039)
(-0.0194775 2.69773e-05 0.00998008 -0.000589677 0.000534802 -0.209544)
(-0.00223013 2.32649e-05 0.00219588 -0.000693818 0.000638807 -0.207527)
(-0.000324533 7.78518e-06 0.000329516 -0.000730507 0.000677723 -0.207225)
(-4.72378e-05 3.71867e-07 5.94277e-05 -0.000741675 0.000716349 -0.207303)
(-6.58502e-06 -3.21449e-07 2.86747e-05 -0.00074157 0.000680844 -0.207336)
(-1.9338e-06 4.36477e-07 2.10768e-05 -0.000737103 0.000682527 -0.20734)
(-1.09012e-06 -8.09824e-08 1.60627e-05 -0.00073544 0.000682136 -0.207342)
(-7.77601e-07 5.21573e-08 1.31588e-05 -0.000735844 0.000683397 -0.207341)
(-9.98435e-07 -6.72139e-07 1.0604e-05 -0.000737585 0.000684744 -0.207331)
(-5.0815e-07 2.22377e-07 4.78876e-07 -0.000740725 0.00068132 -0.207337)
(1.25557e-07 9.12249e-07 5.92445e-06 -0.000726355 0.000685133 -0.207331)
(-8.01335e-07 -1.85431e-07 1.07011e-05 -0.000737388 0.000684883 -0.207335)
(-7.36883e-07 -1.11644e-06 3.73139e-07 -0.000735982 0.000683813 -0.207337)
(2.3118e-07 -1.45466e-07 3.60802e-07 -0.000738958 0.000649719 -0.207333)
(-4.49752e-07 9.50083e-07 5.18848e-07 -0.000738935 0.0006839 -0.207327)
(-7.2376e-07 1.4093e-06 -3.05583e-06 -0.00073665 0.000684695 -0.207328)
(-2.08217e-07 7.71816e-07 -4.03266e-06 -0.000733014 0.000719799 -0.207338)
(-4.2106e-07 -1.61851e-06 -4.76628e-06 -0.00074143 0.000688948 -0.207335)
(-5.31206e-07 9.32738e-07 -7.15808e-06 -0.000739095 0.000651517 -0.207332)
(-4.86244e-07 -8.15195e-07 -9.55442e-06 -0.000735979 0.000722793 -0.207334)
(-8.18438e-07 -1.62138e-06 -1.25752e-05 -0.000734753 0.000647836 -0.207334)
(-1.2097e-06 1.15528e-06 -1.64448e-05 -0.000736011 0.000684198 -0.207339)
(-1.81484e-06 2.10301e-07 -2.08383e-05 -0.000738244 0.000682532 -0.207338)
(-7.17465e-06 -1.25338e-06 -2.76159e-05 -0.000738456 0.000683902 -0.207333)
(-4.79472e-05 4.19258e-08 -6.66484e-05 -0.000734766 0.000647128 -0.207306)
(-0.000323811 -5.89013e-06 -0.000338251 -0.000719671 0.000714356 -0.207214)
(-0.00222923 -2.50327e-05 -0.00218998 -0.000680702 0.000637743 -0.207518)
(-0.0194777 -2.75363e-05 -0.00997452 -0.000590574 0.000534432 -0.209542)
(-0.0929006 -3.98943e-05 -0.0554388 -0.000604239 0.000571825 -0.151043)
(-0.0929491 2.08913e-05 0.0554759 -0.000435662 0.000262878 -0.151043)
(-0.0194879 1.53999e-05 0.0099945 -0.000420337 0.000279811 -0.209585)
(-0.00223253 1.25262e-05 0.00220457 -0.000498325 0.000335886 -0.207569)
(-0.000326133 2.68073e-06 0.000333238 -0.000528723 0.000356992 -0.207259)
(-4.76342e-05 -6.51583e-07 5.82661e-05 -0.000539676 0.000324352 -0.207356)
(-6.4606e-06 1.38096e-06 2.90921e-05 -0.000529648 0.000324353 -0.207379)
(-2.01122e-06 1.22893e-06 2.12701e-05 -0.00053267 0.000359397 -0.207385)
(-1.1935e-06 2.74674e-08 1.6046e-05 -0.000531836 0.00035967 -0.207386)
(-8.69987e-07 -1.19739e-07 1.28756e-05 -0.000532318 0.000360545 -0.207386)
(-7.72279e-07 -1.33846e-06 1.00172e-05 -0.000532956 0.000359679 -0.207385)
(-2.98245e-07 1.37973e-06 7.5612e-06 -0.000529497 0.000325212 -0.20738)
(-2.38636e-07 1.46595e-06 6.34691e-06 -0.000531891 0.000396461 -0.207378)
(-1.09454e-06 -1.18186e-06 3.92315e-06 -0.000534127 0.000362036 -0.20738)
(-6.15338e-07 -2.73582e-07 -6.52664e-06 -0.000532247 0.000361001 -0.207382)
(5.73437e-07 -4.85162e-07 -8.52329e-08 -0.000524521 0.000360401 -0.207377)
(-2.73748e-07 7.72579e-08 7.24026e-06 -0.000535261 0.000357802 -0.207382)
(-8.02046e-07 1.05546e-06 -2.37008e-06 -0.000533186 0.00036064 -0.207382)
(-5.24146e-07 4.51533e-07 -3.37411e-06 -0.000538114 0.000363037 -0.207382)
(-4.41791e-07 -1.62104e-07 -1.13445e-05 -0.000536341 0.00036248 -0.207371)
(-4.04709e-07 4.38763e-07 -7.03215e-06 -0.000523378 0.000362535 -0.207376)