/*--------------------------------*- C++ -*----------------------------------*\
| =========                 |                                                 |
| \\      /  F ield         | OpenFOAM: The Open Source CFD Toolbox           |
|  \\    /   O peration     | Version:  2106                                  |
|   \\  /    A nd           | Website:  www.openfoam.com                      |
|    \\/     M anipulation  |                                                 |
\*---------------------------------------------------------------------------*/
FoamFile
{
    version     2.0;
    format      ascii;
    arch        "LSB;label=32;scalar=64";
    class       volSymmTensorField;
    location    "609";
    object      sigma;
}
// * * * * * * * * * * * * * * * * * * * * * * * * * * * * * * * * * * * * * //

dimensions      [1 -1 -2 0 0 0 0];

internalField   nonuniform List<symmTensor> 
9000
(
(5.3936e+07 -135967 2.48456e+07 2.2192e+07 3.16782e+07 8.49977e+07)
(9.63409e+07 277419 4.8412e+06 2.42741e+07 3.35975e+07 6.90117e+07)
(1.10954e+08 173191 1.32405e+06 2.61169e+07 3.56752e+07 8.1246e+07)
(1.12754e+08 26114.8 233525 2.62567e+07 3.61335e+07 8.33111e+07)
(1.1297e+08 -4096.91 21052.3 2.62935e+07 3.61472e+07 8.33837e+07)
(1.12978e+08 -1055.67 9519.44 2.63689e+07 3.60381e+07 8.32242e+07)
(1.12977e+08 -14.9858 13382.3 2.63017e+07 3.61225e+07 8.32806e+07)
(1.12986e+08 -3050.85 4072.53 2.63778e+07 3.60388e+07 8.32297e+07)
(1.12982e+08 3328.97 16141.5 2.63761e+07 3.60371e+07 8.32232e+07)
(1.12997e+08 3423.44 -3843.66 2.63038e+07 3.61338e+07 8.33536e+07)
(1.13002e+08 -3227.31 -25303 2.63653e+07 3.60735e+07 8.32889e+07)
(1.12981e+08 -276.765 20425.4 2.64349e+07 3.59753e+07 8.31416e+07)
(1.12991e+08 2810.75 30307.1 2.63027e+07 3.61279e+07 8.33329e+07)
(1.12989e+08 426.201 -15610.8 2.62914e+07 3.61324e+07 8.33363e+07)
(1.13005e+08 444.517 949.443 2.63614e+07 3.60781e+07 8.32997e+07)
(1.12999e+08 -613.42 15729.8 2.63025e+07 3.61349e+07 8.33531e+07)
(1.1299e+08 173.545 -18701.9 2.62918e+07 3.61319e+07 8.33331e+07)
(1.13004e+08 390.082 -1550.37 2.63601e+07 3.60791e+07 8.33046e+07)
(1.12998e+08 -3437.17 -12697.1 2.63069e+07 3.61305e+07 8.33441e+07)
(1.12989e+08 -3288.87 -13680.7 2.6438e+07 3.598e+07 8.3169e+07)
(1.1298e+08 2998.88 20472.5 2.63787e+07 3.60337e+07 8.32063e+07)
(1.12992e+08 3368.89 3444.19 2.62986e+07 3.61305e+07 8.334e+07)
(1.13e+08 -3035.29 -16620.3 2.63033e+07 3.61352e+07 8.3356e+07)
(1.12986e+08 -419.56 -13892.6 2.63728e+07 3.6041e+07 8.32373e+07)
(1.12989e+08 853.663 -12849.5 2.6301e+07 3.61276e+07 8.33332e+07)
(1.12958e+08 999.885 -48572.2 2.6366e+07 3.60539e+07 8.32692e+07)
(1.12755e+08 -23564.2 -227507 2.63209e+07 3.60692e+07 8.32351e+07)
(1.10943e+08 -173080 -1.30463e+06 2.61092e+07 3.56692e+07 8.12225e+07)
(9.63384e+07 -276933 -4.84037e+06 2.42738e+07 3.3597e+07 6.90099e+07)
(5.39344e+07 135931 -2.48461e+07 2.21903e+07 3.16759e+07 8.4993e+07)
(4.17512e+07 -5835.55 2.39774e+07 2.85097e+07 3.51735e+07 1.25614e+07)
(7.28743e+07 352070 4.14024e+06 2.80978e+07 3.70125e+07 -8.94511e+06)
(8.60172e+07 223192 796246 3.05973e+07 3.93265e+07 -1.43108e+06)
(8.73504e+07 36600.4 118942 3.05058e+07 3.99236e+07 -568868)
(8.74934e+07 -3260.88 17181.9 3.05448e+07 3.99406e+07 -542116)
(8.76096e+07 -1680.76 16514.5 3.07627e+07 3.99063e+07 -445434)
(8.75303e+07 264.253 13509.3 3.05959e+07 3.99121e+07 -531623)
(8.76249e+07 -884.101 -1320.52 3.07886e+07 3.99088e+07 -430080)
(8.76222e+07 1064.46 17634 3.0785e+07 3.99052e+07 -436450)
(8.75213e+07 3729.12 17425.5 3.05735e+07 3.99189e+07 -539400)
(8.75805e+07 1719.1 -5948.83 3.06828e+07 4.00092e+07 -465179)
(8.76869e+07 -3033.78 2158.75 3.09027e+07 3.9991e+07 -353628)
(8.75205e+07 -3607.12 12178.1 3.05733e+07 3.991e+07 -541900)
(8.75401e+07 3250.82 891.714 3.06046e+07 3.98402e+07 -512601)
(8.7574e+07 1934.82 -759.171 3.06696e+07 4.00161e+07 -473509)
(8.7519e+07 -4651.79 -1047.19 3.05692e+07 3.99212e+07 -543800)
(8.75403e+07 2663.51 -381.099 3.06054e+07 3.98396e+07 -513826)
(8.7574e+07 1964.91 -1724.93 3.06676e+07 4.00167e+07 -471017)
(8.75247e+07 -1106.41 -12611.3 3.05819e+07 3.99139e+07 -538040)
(8.76832e+07 -990.21 -14325.1 3.08955e+07 4.00014e+07 -356266)
(8.76348e+07 -2144.16 2453.48 3.08057e+07 3.98989e+07 -417728)
(8.75138e+07 989.661 2540.42 3.05605e+07 3.99136e+07 -550341)
(8.75196e+07 -562.551 -19477 3.05706e+07 3.99214e+07 -541947)
(8.7618e+07 -898.431 -12007.2 3.07729e+07 3.99102e+07 -435680)
(8.7514e+07 1763.92 -15318.1 3.05667e+07 3.99085e+07 -546630)
(8.75958e+07 5121.97 -26707.1 3.07549e+07 3.9932e+07 -431474)
(8.74159e+07 -37891.8 -108434 3.06286e+07 4.00078e+07 -487471)
(8.60342e+07 -225762 -797274 3.0633e+07 3.92439e+07 -1.41327e+06)
(7.28758e+07 -350350 -4.14159e+06 2.81001e+07 3.70114e+07 -8.94293e+06)
(4.17504e+07 5824.69 -2.39776e+07 2.85063e+07 3.51682e+07 1.25596e+07)
(4.53339e+07 604958 2.4115e+07 5.50068e+07 3.00058e+07 5.56192e+06)
(8.00968e+07 449516 4.05764e+06 5.7557e+07 3.12858e+07 -1.55659e+07)
(9.39293e+07 267984 706178 6.21721e+07 3.33855e+07 -8.27553e+06)
(9.53063e+07 50659.2 87855.7 6.23348e+07 3.39925e+07 -7.57788e+06)
(9.54417e+07 -454.906 29402.1 6.23824e+07 3.40148e+07 -7.56009e+06)
(9.55218e+07 -2654.31 18262.8 6.25099e+07 3.40714e+07 -7.46656e+06)
(9.54673e+07 1130.05 13044.1 6.24147e+07 3.39834e+07 -7.54757e+06)
(9.55183e+07 2313.29 11413.6 6.25084e+07 3.41218e+07 -7.48118e+06)
(9.55135e+07 -1473.65 4063.4 6.24988e+07 3.4118e+07 -7.48845e+06)
(9.54671e+07 -1427.87 4758.07 6.24117e+07 3.39944e+07 -7.55201e+06)
(9.54769e+07 1669.46 9496.7 6.24284e+07 3.39814e+07 -7.53391e+06)
(9.55323e+07 -1388.7 2367.97 6.25305e+07 3.41086e+07 -7.45727e+06)
(9.54955e+07 -1779.62 -10368.5 6.24514e+07 3.39376e+07 -7.49964e+06)
(9.55072e+07 1978.82 265.515 6.2487e+07 3.39959e+07 -7.50243e+06)
(9.54727e+07 267.778 6225.02 6.24217e+07 3.39898e+07 -7.54004e+06)
(9.54645e+07 -552.712 -8758.98 6.24088e+07 3.39975e+07 -7.55449e+06)
(9.55057e+07 236.528 140.811 6.24859e+07 3.39952e+07 -7.50529e+06)
(9.5473e+07 149.192 6028.26 6.24203e+07 3.39894e+07 -7.54034e+06)
(9.54689e+07 1207.11 1552.15 6.24175e+07 3.39893e+07 -7.54874e+06)
(9.55288e+07 1447.27 -378.281 6.25249e+07 3.41112e+07 -7.46314e+06)
(9.55268e+07 -2848.96 -11016.2 6.2522e+07 3.41187e+07 -7.46732e+06)
(9.54796e+07 -1317.31 -12052.3 6.24291e+07 3.39422e+07 -7.52998e+06)
(9.54653e+07 2625.36 -6753.95 6.24104e+07 3.39979e+07 -7.55398e+06)
(9.55094e+07 -2051.19 -11012.9 6.24897e+07 3.41215e+07 -7.49022e+06)
(9.54758e+07 2084.54 -15712.9 6.24257e+07 3.39369e+07 -7.52767e+06)
(9.5494e+07 2390.27 -24214 6.24769e+07 3.41428e+07 -7.48755e+06)
(9.53229e+07 -52797.8 -97899 6.23642e+07 3.39733e+07 -7.55095e+06)
(9.39694e+07 -267852 -709722 6.22493e+07 3.33754e+07 -8.22958e+06)
(8.01004e+07 -449796 -4.05222e+06 5.7561e+07 3.12848e+07 -1.55614e+07)
(4.53318e+07 -604845 -2.41149e+07 5.49984e+07 2.99991e+07 5.55757e+06)
(4.97613e+07 936522 2.49522e+07 7.38581e+07 2.11038e+07 1.24056e+07)
(8.85266e+07 454062 4.19829e+06 7.81318e+07 2.18041e+07 -8.60785e+06)
(1.03358e+08 255308 767918 8.41467e+07 2.35278e+07 -653438)
(1.04869e+08 51807.7 98469.6 8.45313e+07 2.39809e+07 150565)
(1.05016e+08 -395.601 21745.8 8.45775e+07 2.40048e+07 167732)
(1.05074e+08 -3480.08 18539.3 8.46576e+07 2.39515e+07 234141)
(1.05051e+08 658.205 17407.1 8.46216e+07 2.39452e+07 196061)
(1.05033e+08 795.988 9844.52 8.45948e+07 2.39887e+07 166661)
(1.05054e+08 258.982 6410.3 8.46182e+07 2.39508e+07 206746)
(1.05043e+08 179.03 5986.42 8.46064e+07 2.39886e+07 177609)
(1.05045e+08 -1017.01 7549.28 8.46121e+07 2.39818e+07 182629)
(1.05051e+08 392.755 -2418.93 8.46173e+07 2.39773e+07 202027)
(1.05073e+08 3063.41 -1922.1 8.46602e+07 2.39892e+07 218629)
(1.05052e+08 528.58 5348.56 8.46281e+07 2.40741e+07 183857)
(1.05045e+08 -1795.39 -386.339 8.4613e+07 2.39891e+07 181008)
(1.0504e+08 2111.96 -1948.19 8.46033e+07 2.3992e+07 173556)
(1.0505e+08 -315.447 -73.5905 8.46257e+07 2.40734e+07 180018)
(1.05045e+08 -2180.29 -68.7711 8.46128e+07 2.39889e+07 180494)
(1.05053e+08 -805.198 -639.375 8.46192e+07 2.39839e+07 200488)
(1.05039e+08 -386.19 -2858.98 8.46039e+07 2.39828e+07 176127)
(1.05047e+08 575.952 -13521.9 8.4611e+07 2.39836e+07 193798)
(1.05072e+08 809.162 -10214 8.46534e+07 2.39859e+07 221062)
(1.05041e+08 -654.987 -3591.21 8.46065e+07 2.39931e+07 174191)
(1.05041e+08 -1983.7 -15850.5 8.46029e+07 2.39529e+07 182637)
(1.05081e+08 2505.82 -15948.4 8.46679e+07 2.39465e+07 245065)
(1.05013e+08 100.435 -18446 8.45713e+07 2.40042e+07 167401)
(1.04878e+08 -50389.3 -99321 8.45482e+07 2.39677e+07 165753)
(1.03381e+08 -254055 -771844 8.41821e+07 2.36013e+07 -616704)
(8.85305e+07 -456826 -4.20019e+06 7.81355e+07 2.18033e+07 -8.60352e+06)
(4.9768e+07 -936158 -2.49512e+07 7.38719e+07 2.10642e+07 1.24218e+07)
(5.26189e+07 917442 2.59842e+07 8.56345e+07 1.36108e+07 1.84551e+07)
(9.39599e+07 397577 4.41177e+06 9.09624e+07 1.38117e+07 -3.00208e+06)
(1.09652e+08 212768 856248 9.7796e+07 1.51622e+07 5.54198e+06)
(1.11312e+08 44512.8 108987 9.83887e+07 1.54556e+07 6.48883e+06)
(1.11488e+08 2778.99 21257 9.84558e+07 1.54505e+07 6.52556e+06)
(1.11515e+08 -2437.04 12642.9 9.84946e+07 1.5525e+07 6.52549e+06)
(1.11527e+08 -1460.12 16821.4 9.8505e+07 1.54337e+07 6.54769e+06)
(1.11498e+08 1153.42 9250.35 9.84571e+07 1.54723e+07 6.50647e+06)
(1.11517e+08 -79.5424 7044.57 9.84887e+07 1.5473e+07 6.53083e+06)
(1.11511e+08 -1131.72 10862.5 9.84669e+07 1.5467e+07 6.53098e+06)
(1.11516e+08 -1060.18 6300.49 9.84824e+07 1.54357e+07 6.53539e+06)
(1.11506e+08 2051.41 1807.75 9.84644e+07 1.54673e+07 6.5229e+06)
(1.11504e+08 2535.38 -1424.87 9.84666e+07 1.55176e+07 6.51007e+06)
(1.11494e+08 -631.157 1132.18 9.84423e+07 1.54804e+07 6.50196e+06)
(1.11505e+08 -1106.57 403.938 9.84661e+07 1.5469e+07 6.51729e+06)
(1.11501e+08 1307.8 -2315.92 9.84559e+07 1.54697e+07 6.5118e+06)
(1.11492e+08 -172.698 -403.902 9.84405e+07 1.54797e+07 6.49882e+06)
(1.11505e+08 -1775.23 610.311 9.84662e+07 1.54688e+07 6.51628e+06)
(1.11515e+08 -884.322 -1642.85 9.84717e+07 1.54662e+07 6.54111e+06)
(1.11501e+08 -53.6464 -3849.68 9.84602e+07 1.54685e+07 6.51194e+06)
(1.11503e+08 1416.18 -7494.46 9.84621e+07 1.54714e+07 6.51665e+06)
(1.11514e+08 965.636 -8996.26 9.84838e+07 1.54921e+07 6.52664e+06)
(1.11502e+08 -598.665 -13100.8 9.84623e+07 1.54713e+07 6.51154e+06)
(1.11512e+08 -517.466 -15824.2 9.84805e+07 1.54708e+07 6.52567e+06)
(1.11527e+08 1285.8 -10741.7 9.8508e+07 1.54877e+07 6.54715e+06)
(1.11476e+08 -2473.84 -18746.1 9.8437e+07 1.54811e+07 6.50981e+06)
(1.11317e+08 -44577.1 -110019 9.83947e+07 1.54464e+07 6.49987e+06)
(1.09646e+08 -211291 -858633 9.77817e+07 1.51693e+07 5.5391e+06)
(9.39638e+07 -398157 -4.41825e+06 9.0965e+07 1.38109e+07 -2.99904e+06)
(5.2631e+07 -916421 -2.59777e+07 8.56667e+07 1.36057e+07 1.84756e+07)
(5.41914e+07 721341 2.68861e+07 9.27744e+07 8.49485e+06 2.19421e+07)
(9.69924e+07 314234 4.61873e+06 9.87885e+07 8.44894e+06 -81662.4)
(1.13369e+08 165005 934942 1.06194e+08 9.38135e+06 8.93312e+06)
(1.15118e+08 38020.7 120763 1.06899e+08 9.65403e+06 9.92474e+06)
(1.15314e+08 4059.2 25287.3 1.06982e+08 9.67506e+06 9.96676e+06)
(1.15314e+08 -1291.07 15775.8 1.0696e+08 9.716e+06 9.93291e+06)
(1.15347e+08 -1989.5 12930.9 1.07014e+08 9.67783e+06 9.97479e+06)
(1.15325e+08 790.685 12819.3 1.06972e+08 9.67154e+06 9.94868e+06)
(1.15323e+08 -860.847 7005.52 1.06974e+08 9.70818e+06 9.94141e+06)
(1.15336e+08 -1475.86 2760.12 1.06986e+08 9.64497e+06 9.96664e+06)
(1.15343e+08 -840.705 5656.91 1.07004e+08 9.66576e+06 9.97245e+06)
(1.15345e+08 72.5234 5580.11 1.06995e+08 9.6439e+06 9.98814e+06)
(1.15326e+08 2494.6 -403.589 1.06966e+08 9.6497e+06 9.9561e+06)
(1.15322e+08 439.578 1747 1.06962e+08 9.67825e+06 9.94613e+06)
(1.15329e+08 -1314.14 483.807 1.06976e+08 9.66898e+06 9.95616e+06)
(1.15335e+08 954.738 -1909.31 1.06983e+08 9.64499e+06 9.96647e+06)
(1.15321e+08 418.233 -748 1.06961e+08 9.67737e+06 9.94464e+06)
(1.15329e+08 -2191.42 -134.776 1.06976e+08 9.66932e+06 9.95437e+06)
(1.15344e+08 -766.055 -2223.87 1.06993e+08 9.64387e+06 9.98651e+06)
(1.15325e+08 692.467 -3865.33 1.06969e+08 9.66851e+06 9.95182e+06)
(1.15333e+08 1528.14 -11222 1.06976e+08 9.67005e+06 9.96939e+06)
(1.15332e+08 969.518 -8368.4 1.06984e+08 9.67509e+06 9.95678e+06)
(1.15325e+08 -217.431 -4346.71 1.06973e+08 9.67087e+06 9.94923e+06)
(1.15339e+08 343.82 -16445.4 1.06991e+08 9.68396e+06 9.97405e+06)
(1.15335e+08 220.498 -14666.9 1.06993e+08 9.68502e+06 9.96371e+06)
(1.15299e+08 -4261.46 -18926 1.06952e+08 9.67588e+06 9.95258e+06)
(1.15138e+08 -37325.5 -126572 1.06922e+08 9.62368e+06 9.96682e+06)
(1.13357e+08 -163316 -936133 1.06178e+08 9.38595e+06 8.9133e+06)
(9.69969e+07 -313488 -4.62006e+06 9.87914e+07 8.44821e+06 -77293.5)
(5.41964e+07 -720851 -2.68792e+07 9.27854e+07 8.52859e+06 2.19448e+07)
(5.5057e+07 497769 2.75486e+07 9.71411e+07 5.28193e+06 2.38069e+07)
(9.86729e+07 231219 4.78936e+06 1.03575e+08 5.15429e+06 1.31236e+06)
(1.15527e+08 122689 994185 1.11399e+08 5.83624e+06 1.06147e+07)
(1.1735e+08 30062.7 141861 1.12174e+08 6.01901e+06 1.16649e+07)
(1.17551e+08 3499.08 26764.9 1.12246e+08 6.06737e+06 1.17062e+07)
(1.1756e+08 -517.448 11090.6 1.12229e+08 6.04542e+06 1.16818e+07)
(1.17586e+08 -1389.55 12818.8 1.12272e+08 6.06565e+06 1.17131e+07)
(1.17571e+08 -713.898 12593.9 1.12249e+08 6.03476e+06 1.16928e+07)
(1.17567e+08 -130.407 2982.12 1.12239e+08 6.03909e+06 1.16862e+07)
(1.17584e+08 -99.6183 6397.61 1.12273e+08 6.03369e+06 1.17065e+07)
(1.17575e+08 -909.314 4913.34 1.12259e+08 6.06153e+06 1.16935e+07)
(1.17586e+08 -902.823 -1743.86 1.12272e+08 6.0326e+06 1.17131e+07)
(1.17589e+08 1487.3 4594.95 1.12274e+08 6.01616e+06 1.17177e+07)
(1.17571e+08 269.707 5490.52 1.12245e+08 6.03908e+06 1.16941e+07)
(1.17575e+08 -467.014 -3465.62 1.12252e+08 6.03304e+06 1.16985e+07)
(1.17586e+08 740.471 -1419.05 1.12272e+08 6.03335e+06 1.17107e+07)
(1.17571e+08 -200.495 2893.93 1.12245e+08 6.0383e+06 1.16932e+07)
(1.17575e+08 -1391.9 -5061.86 1.12253e+08 6.03341e+06 1.16975e+07)
(1.17583e+08 -996.885 -2475.33 1.12268e+08 6.03226e+06 1.17076e+07)
(1.17581e+08 -448.088 250.486 1.12261e+08 6.01089e+06 1.17093e+07)
(1.17585e+08 2483.67 -6937.7 1.12262e+08 6.01379e+06 1.17223e+07)
(1.17568e+08 1542.03 -7694.53 1.12245e+08 6.06869e+06 1.16839e+07)
(1.17571e+08 -687.22 -12314 1.1225e+08 6.03496e+06 1.1692e+07)
(1.17579e+08 1040.34 -16395.8 1.1226e+08 6.03962e+06 1.17028e+07)
(1.17579e+08 -703.027 -10228.4 1.12264e+08 6.04957e+06 1.17039e+07)
(1.17553e+08 -4535.66 -24195.8 1.12247e+08 6.01511e+06 1.17113e+07)
(1.1737e+08 -27917 -143226 1.122e+08 6.01453e+06 1.17033e+07)
(1.15527e+08 -121604 -992143 1.11396e+08 5.83804e+06 1.06173e+07)
(9.86769e+07 -230983 -4.79082e+06 1.03577e+08 5.1532e+06 1.31817e+06)
(5.50565e+07 -498438 -2.75457e+07 9.71346e+07 5.28799e+06 2.38016e+07)
(5.55667e+07 316255 2.79868e+07 9.98539e+07 3.30125e+06 2.48547e+07)
(9.96493e+07 160541 4.92489e+06 1.06519e+08 3.17178e+06 2.02836e+06)
(1.16817e+08 88857.4 1.03945e+06 1.14634e+08 3.67021e+06 1.15174e+07)
(1.18702e+08 21519.8 148097 1.15481e+08 3.77897e+06 1.26158e+07)
(1.18909e+08 2806.71 27936.7 1.15546e+08 3.79846e+06 1.26576e+07)
(1.18928e+08 548.468 14224 1.15547e+08 3.79966e+06 1.26409e+07)
(1.1893e+08 -1002.51 11950.9 1.1555e+08 3.82318e+06 1.26358e+07)
(1.18936e+08 -1081.82 9143.35 1.1556e+08 3.79249e+06 1.26456e+07)
(1.18934e+08 802.678 6673.6 1.15554e+08 3.79584e+06 1.26426e+07)
(1.18938e+08 -135.914 6052.41 1.15565e+08 3.81795e+06 1.26444e+07)
(1.18935e+08 -1147.83 4188.68 1.15557e+08 3.79452e+06 1.26454e+07)
(1.18945e+08 722.766 -1617.38 1.15574e+08 3.7974e+06 1.26564e+07)
(1.18948e+08 603.507 1741.87 1.1558e+08 3.82e+06 1.26577e+07)
(1.18937e+08 -1224.47 5335.85 1.15559e+08 3.79509e+06 1.26488e+07)
(1.18938e+08 481.498 45.9285 1.15561e+08 3.79096e+06 1.26491e+07)
(1.18939e+08 609.075 -1010.81 1.15565e+08 3.81726e+06 1.26466e+07)
(1.18937e+08 -1009.11 -879.351 1.15558e+08 3.79439e+06 1.26471e+07)
(1.18938e+08 -678.554 -1973.04 1.15562e+08 3.79155e+06 1.26497e+07)
(1.18942e+08 -226.933 -6300.45 1.15569e+08 3.79666e+06 1.26531e+07)
(1.18949e+08 -643.257 -7312.8 1.15581e+08 3.79047e+06 1.26635e+07)
(1.18952e+08 1281.93 -2590.29 1.15586e+08 3.77269e+06 1.26687e+07)
(1.18931e+08 1193.23 -3225.9 1.15549e+08 3.79871e+06 1.26399e+07)
(1.18935e+08 458.258 -8841.29 1.15559e+08 3.79304e+06 1.26445e+07)
(1.18933e+08 1906.67 -16042.6 1.15557e+08 3.82201e+06 1.26388e+07)
(1.18936e+08 -903.648 -17307.8 1.15563e+08 3.82634e+06 1.26477e+07)
(1.1892e+08 -4765.66 -22457.1 1.1557e+08 3.79323e+06 1.26666e+07)
(1.18708e+08 -20746.4 -144692 1.1549e+08 3.78071e+06 1.26263e+07)
(1.16818e+08 -88155 -1.04042e+06 1.14633e+08 3.67047e+06 1.15235e+07)
(9.96607e+07 -160256 -4.92693e+06 1.06529e+08 3.17109e+06 2.05215e+06)
(5.55658e+07 -316990 -2.79854e+07 9.98491e+07 3.30592e+06 2.48498e+07)
(5.58856e+07 190848 2.82583e+07 1.01556e+08 2.07123e+06 2.54849e+07)
(1.00245e+08 105601 5.01626e+06 1.08338e+08 1.96847e+06 2.44465e+06)
(1.17621e+08 62989.3 1.07303e+06 1.16669e+08 2.29167e+06 1.20686e+07)
(1.19545e+08 15856.2 155504 1.17567e+08 2.38556e+06 1.3188e+07)
(1.19755e+08 2221.28 28358.9 1.17632e+08 2.40021e+06 1.322e+07)
(1.19782e+08 474.299 14228.9 1.17641e+08 2.40074e+06 1.32181e+07)
(1.19781e+08 -660.226 11475.8 1.17636e+08 2.40301e+06 1.32121e+07)
(1.19788e+08 -645.825 9061.95 1.17649e+08 2.39666e+06 1.32195e+07)
(1.19788e+08 451.056 6940.81 1.17646e+08 2.39842e+06 1.32194e+07)
(1.19792e+08 -118.227 5982.08 1.17649e+08 2.4005e+06 1.32308e+07)
(1.19789e+08 -299.648 41.9158 1.17648e+08 2.39879e+06 1.32219e+07)
(1.19797e+08 1220.82 1961.02 1.17662e+08 2.39975e+06 1.32314e+07)
(1.19788e+08 -1.06135 5658.06 1.17646e+08 2.4238e+06 1.32176e+07)
(1.1979e+08 -1761.96 1500.65 1.17649e+08 2.39845e+06 1.32232e+07)
(1.19788e+08 174.653 76.0838 1.17647e+08 2.39543e+06 1.32213e+07)
(1.19793e+08 625.982 -680.958 1.1765e+08 2.4e+06 1.32308e+07)
(1.19789e+08 -621.511 -1153.38 1.17649e+08 2.39797e+06 1.32213e+07)
(1.1979e+08 -572.48 -5639.12 1.1765e+08 2.39581e+06 1.32225e+07)
(1.19807e+08 533.451 -2820.26 1.17673e+08 2.38118e+06 1.32521e+07)
(1.1979e+08 917.246 -4074.31 1.17651e+08 2.418e+06 1.32217e+07)
(1.19798e+08 290.612 -5458.91 1.17668e+08 2.42001e+06 1.3229e+07)
(1.19786e+08 -374.2 -2726.73 1.17644e+08 2.4012e+06 1.32186e+07)
(1.19787e+08 308.511 -8911.89 1.17649e+08 2.39742e+06 1.32189e+07)
(1.19783e+08 1917.19 -11968.5 1.17639e+08 2.40226e+06 1.32146e+07)
(1.19779e+08 120.273 -13866 1.17635e+08 2.42752e+06 1.32128e+07)
(1.1976e+08 -4366.51 -31197.6 1.17643e+08 2.41971e+06 1.3225e+07)
(1.19557e+08 -16405.2 -155546 1.17584e+08 2.36674e+06 1.32074e+07)
(1.17623e+08 -62407.4 -1.06992e+06 1.1667e+08 2.29096e+06 1.20752e+07)
(1.00247e+08 -105132 -5.01722e+06 1.08339e+08 1.96702e+06 2.44924e+06)
(5.58853e+07 -191330 -2.82581e+07 1.01554e+08 2.07462e+06 2.54827e+07)
(5.60908e+07 111885 2.84201e+07 1.02625e+08 1.29897e+06 2.58773e+07)
(1.00617e+08 67181 5.07588e+06 1.0946e+08 1.22665e+06 2.70496e+06)
(1.1813e+08 43634.7 1.09712e+06 1.17956e+08 1.44105e+06 1.24191e+07)
(1.20077e+08 11353.8 160994 1.18883e+08 1.50729e+06 1.35504e+07)
(1.20297e+08 1676.31 29626.9 1.18955e+08 1.51842e+06 1.35936e+07)
(1.20322e+08 543.452 14374.2 1.18963e+08 1.51821e+06 1.35828e+07)
(1.20323e+08 -400.902 11165 1.18961e+08 1.51994e+06 1.35802e+07)
(1.20327e+08 -427.418 8763.16 1.18968e+08 1.5159e+06 1.35831e+07)
(1.20327e+08 135.322 6933.89 1.18967e+08 1.51689e+06 1.35831e+07)
(1.20331e+08 -104.137 5866.75 1.1897e+08 1.51921e+06 1.35938e+07)
(1.20328e+08 596.065 3422.73 1.18968e+08 1.51736e+06 1.35866e+07)
(1.20328e+08 757.076 2254.7 1.18968e+08 1.53922e+06 1.35841e+07)
(1.20325e+08 -646.139 2250.32 1.1896e+08 1.52196e+06 1.35829e+07)
(1.20329e+08 -1596.08 1027.6 1.18969e+08 1.51735e+06 1.3587e+07)
(1.20333e+08 19.0891 -49.7435 1.18975e+08 1.49702e+06 1.35931e+07)
(1.20327e+08 930.48 -395.63 1.18966e+08 1.51841e+06 1.3584e+07)
(1.20328e+08 -460.942 -1255.46 1.18969e+08 1.51719e+06 1.35851e+07)
(1.20327e+08 625.738 -5931.71 1.18966e+08 1.51544e+06 1.35842e+07)
(1.20337e+08 7.18343 -2691.94 1.18985e+08 1.53914e+06 1.35942e+07)
(1.20331e+08 128.859 -354.127 1.18971e+08 1.49944e+06 1.35922e+07)
(1.20324e+08 691.025 -5070.91 1.18961e+08 1.53994e+06 1.3579e+07)
(1.20326e+08 -752.537 -6076.71 1.18965e+08 1.51871e+06 1.35847e+07)
(1.20326e+08 217.767 -8815.5 1.18968e+08 1.51673e+06 1.35831e+07)
(1.20324e+08 1109.3 -11412.3 1.18962e+08 1.51983e+06 1.35816e+07)
(1.20318e+08 -43.4958 -13999.6 1.18953e+08 1.52314e+06 1.35801e+07)
(1.20294e+08 -2197.37 -32529.1 1.18953e+08 1.51837e+06 1.35871e+07)
(1.20085e+08 -11983.8 -161131 1.18894e+08 1.52758e+06 1.3562e+07)
(1.18132e+08 -44089.4 -1.09376e+06 1.17957e+08 1.43968e+06 1.24247e+07)
(1.00618e+08 -66514.1 -5.0767e+06 1.09462e+08 1.2253e+06 2.70699e+06)
(5.6091e+07 -112095 -2.84208e+07 1.02627e+08 1.30144e+06 2.58768e+07)
(5.6227e+07 64829.3 2.85142e+07 1.03307e+08 790299 2.61313e+07)
(1.00852e+08 42092.7 5.11297e+06 1.10153e+08 762770 2.87074e+06)
(1.1845e+08 29486.8 1.11396e+06 1.18761e+08 901641 1.26412e+07)
(1.20412e+08 7585.25 164891 1.19711e+08 947775 1.37812e+07)
(1.20636e+08 1178.01 29640.6 1.1979e+08 936844 1.3822e+07)
(1.20662e+08 894.185 14672.7 1.19794e+08 955223 1.3815e+07)
(1.20664e+08 -198.647 10956.4 1.19794e+08 956128 1.38137e+07)
(1.20666e+08 -269.946 8505.55 1.19797e+08 954040 1.38143e+07)
(1.20666e+08 51.1688 6712.29 1.19797e+08 954901 1.3814e+07)
(1.20666e+08 -125.8 5649.97 1.19797e+08 956115 1.38144e+07)
(1.20668e+08 174.751 3649.68 1.19798e+08 954823 1.3818e+07)
(1.20664e+08 507.895 2606.47 1.19788e+08 957276 1.3814e+07)
(1.20667e+08 -159.841 2217.84 1.19794e+08 958161 1.38182e+07)
(1.20669e+08 -682.275 -2888.77 1.19799e+08 955317 1.38187e+07)
(1.20677e+08 60.3871 -52.5999 1.19813e+08 953756 1.38283e+07)
(1.20668e+08 334.49 3318.09 1.19798e+08 956427 1.38167e+07)
(1.20668e+08 -751.701 -1378.66 1.19799e+08 955489 1.38174e+07)
(1.20672e+08 1042.73 -2488.58 1.19804e+08 936471 1.38229e+07)
(1.20666e+08 730.045 -6006.94 1.19796e+08 978103 1.38141e+07)
(1.20676e+08 -1072.7 -3592.05 1.19811e+08 955530 1.38287e+07)
(1.20668e+08 23.7846 -1427.03 1.19796e+08 940912 1.38198e+07)
(1.20666e+08 33.6971 -6253.2 1.19795e+08 955223 1.38172e+07)
(1.20666e+08 226.855 -8708.06 1.19798e+08 954933 1.38149e+07)
(1.20665e+08 610.56 -10991.3 1.19794e+08 956329 1.38149e+07)
(1.2066e+08 -172.972 -14031.8 1.1979e+08 958290 1.38157e+07)
(1.20633e+08 -1624.87 -30006.6 1.19784e+08 955312 1.38205e+07)
(1.20414e+08 -8684.37 -165516 1.19709e+08 950168 1.37882e+07)
(1.1845e+08 -29764.9 -1.11408e+06 1.18759e+08 900030 1.26447e+07)
(1.00851e+08 -40788.4 -5.11387e+06 1.10153e+08 761802 2.87079e+06)
(5.62235e+07 -64551.4 -2.85157e+07 1.033e+08 811634 2.61229e+07)
(5.63144e+07 37241.9 2.85659e+07 1.03734e+08 498008 2.62893e+07)
(1.00997e+08 24957.2 5.14041e+06 1.10575e+08 468021 2.97364e+06)
(1.18648e+08 19313.8 1.12535e+06 1.1926e+08 556033 1.27793e+07)
(1.20621e+08 5633.31 164383 1.20226e+08 587278 1.39263e+07)
(1.20852e+08 750.556 29998.1 1.20315e+08 591897 1.39721e+07)
(1.20873e+08 234.052 18236.1 1.2031e+08 591484 1.39597e+07)
(1.20876e+08 -16.5308 10854.3 1.20312e+08 592284 1.39592e+07)
(1.20878e+08 -137.528 8350.41 1.20314e+08 591381 1.3959e+07)
(1.20878e+08 101.073 6701.09 1.20314e+08 592196 1.39589e+07)
(1.20878e+08 -185.044 5530.95 1.20314e+08 593326 1.39602e+07)
(1.20879e+08 -437.708 3732.68 1.20313e+08 591417 1.39623e+07)
(1.20882e+08 407.596 2844.49 1.20317e+08 575986 1.39682e+07)
(1.2088e+08 397.004 2128.15 1.20313e+08 593634 1.39644e+07)
(1.2088e+08 29.3103 292.314 1.20316e+08 592443 1.39636e+07)
(1.2088e+08 66.4236 73.6632 1.20314e+08 609864 1.39629e+07)
(1.2088e+08 -155.196 124.952 1.20315e+08 593265 1.39637e+07)
(1.2088e+08 -82.1309 -4993.04 1.20316e+08 592889 1.39637e+07)
(1.20888e+08 584.715 -2288.61 1.2033e+08 592300 1.39726e+07)
(1.20876e+08 521.075 934.595 1.20308e+08 596575 1.39597e+07)
(1.20879e+08 -261.943 -7058.44 1.20313e+08 610986 1.39635e+07)
(1.20887e+08 -691.747 -4827.22 1.20326e+08 595038 1.3973e+07)
(1.20877e+08 -336.798 -2948.55 1.2031e+08 591539 1.39613e+07)
(1.20878e+08 316.114 -8560.14 1.20314e+08 592374 1.39603e+07)
(1.20877e+08 299.784 -10788 1.20312e+08 592508 1.39605e+07)
(1.20873e+08 -333.469 -14140 1.2031e+08 593444 1.39622e+07)
(1.20844e+08 -1355.61 -34017.1 1.203e+08 591248 1.39654e+07)
(1.20631e+08 -6242.89 -168694 1.20238e+08 571144 1.39442e+07)
(1.18654e+08 -19342.7 -1.1222e+06 1.19267e+08 537152 1.27899e+07)
(1.00997e+08 -24016.8 -5.13617e+06 1.10576e+08 467761 2.97403e+06)
(5.63081e+07 -36645.4 -2.85702e+07 1.03719e+08 497878 2.62757e+07)
(5.63604e+07 20889.8 2.86006e+07 1.03971e+08 314547 2.63687e+07)
(1.01085e+08 13916.6 5.14835e+06 1.10829e+08 275885 3.03677e+06)
(1.18768e+08 12001.5 1.13277e+06 1.19561e+08 329537 1.28632e+07)
(1.20747e+08 4016.08 169985 1.20537e+08 349612 1.40148e+07)
(1.20976e+08 191.832 30656.6 1.20618e+08 369538 1.40602e+07)
(1.21e+08 -165.823 14792.2 1.20621e+08 351222 1.40467e+07)
(1.21005e+08 225.162 10872.8 1.20626e+08 352090 1.40475e+07)
(1.21006e+08 -41.7758 8286.12 1.20627e+08 351888 1.40469e+07)
(1.21006e+08 26.906 6788.15 1.20627e+08 352539 1.40471e+07)
(1.2101e+08 -346.732 5470.2 1.2063e+08 353234 1.40566e+07)
(1.21006e+08 114.716 247.034 1.20625e+08 351468 1.4049e+07)
(1.21017e+08 470.595 3056.2 1.20642e+08 353435 1.40625e+07)
(1.21008e+08 -95.6568 5520.28 1.20628e+08 353305 1.40523e+07)
(1.21008e+08 -575.928 192.488 1.20629e+08 352753 1.40514e+07)
(1.2101e+08 -75.0404 186.125 1.20628e+08 335166 1.40539e+07)
(1.21012e+08 490.113 267.654 1.20631e+08 352799 1.40602e+07)
(1.21012e+08 727.007 -1576.39 1.20633e+08 353209 1.406e+07)
(1.2101e+08 398.151 -2080.3 1.20632e+08 371318 1.40521e+07)
(1.21007e+08 -834.929 -2458.74 1.20625e+08 355403 1.40512e+07)
(1.21009e+08 481.165 -3692.59 1.20628e+08 336093 1.40548e+07)
(1.2101e+08 -420.529 -4928.77 1.2063e+08 372862 1.40541e+07)
(1.21011e+08 -836.411 -6487.06 1.20632e+08 334195 1.40552e+07)
(1.21007e+08 595.965 -8483.28 1.20628e+08 352953 1.40494e+07)
(1.21006e+08 108.487 -10749.7 1.20626e+08 352093 1.40485e+07)
(1.21003e+08 -646.572 -14246 1.20625e+08 352800 1.40509e+07)
(1.20977e+08 21.628 -34381.4 1.20623e+08 333829 1.40603e+07)
(1.20757e+08 -3038.5 -174491 1.20553e+08 368510 1.40304e+07)
(1.18779e+08 -12913.4 -1.12973e+06 1.19578e+08 328988 1.28784e+07)
(1.01086e+08 -14204.9 -5.14548e+06 1.10829e+08 275694 3.03853e+06)
(5.63596e+07 -20580 -2.85988e+07 1.03972e+08 294983 2.6366e+07)
(5.63899e+07 10777 2.8618e+07 1.04114e+08 135609 2.64213e+07)
(1.01134e+08 7944.25 5.15579e+06 1.1097e+08 144344 3.07038e+06)
(1.18836e+08 6461.78 1.13726e+06 1.19731e+08 173271 1.29105e+07)
(1.20822e+08 1382.89 171905 1.20718e+08 184159 1.40734e+07)
(1.21044e+08 -336.128 30057.3 1.2079e+08 167321 1.4101e+07)
(1.21078e+08 712.384 15007.5 1.20808e+08 167321 1.41024e+07)
(1.21079e+08 633.96 10972.4 1.20805e+08 185399 1.40976e+07)
(1.21079e+08 14.1694 8277.52 1.20805e+08 185540 1.40966e+07)
(1.21079e+08 -61.7689 6642.03 1.20805e+08 185992 1.40972e+07)
(1.2108e+08 -690.462 5167.53 1.20805e+08 185545 1.40978e+07)
(1.21084e+08 711.754 3900.54 1.20811e+08 167765 1.41044e+07)
(1.21084e+08 756.228 3274.14 1.20809e+08 204520 1.41048e+07)
(1.21081e+08 -609.678 2023.81 1.20806e+08 186761 1.41023e+07)
(1.21082e+08 -141.131 -3366.85 1.20807e+08 186227 1.41014e+07)
(1.21088e+08 -250.277 -43.9685 1.20817e+08 185918 1.41099e+07)
(1.2108e+08 39.8545 3734.98 1.20804e+08 184577 1.41e+07)
(1.21081e+08 544.472 -1222.63 1.20806e+08 186041 1.41009e+07)
(1.21079e+08 232.929 -1740.58 1.20801e+08 187277 1.40982e+07)
(1.21085e+08 -83.6232 -5852.2 1.20808e+08 186990 1.41101e+07)
(1.21089e+08 226.341 -3627.62 1.20819e+08 187018 1.41114e+07)
(1.21083e+08 -310.821 -5189.15 1.20805e+08 187832 1.41091e+07)
(1.21088e+08 -412.914 -6626.44 1.20819e+08 185172 1.41099e+07)
(1.21084e+08 -1.25173 -5302.47 1.20809e+08 186184 1.41076e+07)
(1.21078e+08 82.6283 -10792.5 1.20803e+08 184874 1.40975e+07)
(1.21076e+08 1.95591 -17762.9 1.20805e+08 185986 1.41013e+07)
(1.21055e+08 502.32 -31114.3 1.2081e+08 184906 1.4116e+07)
(1.2082e+08 -1228.49 -168553 1.20713e+08 203360 1.40696e+07)
(1.1884e+08 -7676.48 -1.13784e+06 1.19737e+08 191408 1.29168e+07)
(1.01134e+08 -8007.07 -5.15591e+06 1.10969e+08 143302 3.07177e+06)
(5.63887e+07 -10529.9 -2.86181e+07 1.04114e+08 155721 2.64167e+07)
(5.64077e+07 3360.73 2.86226e+07 1.04192e+08 48788.7 2.64537e+07)
(1.01156e+08 2167.68 5.16428e+06 1.11034e+08 44715.1 3.08407e+06)
(1.18866e+08 1926.83 1.13917e+06 1.19807e+08 53901.6 1.29315e+07)
(1.2085e+08 108.191 168129 1.20794e+08 56579.5 1.40869e+07)
(1.21088e+08 246.095 26708.3 1.20892e+08 40327 1.41366e+07)
(1.21117e+08 492.188 18517.8 1.20899e+08 57563.7 1.4131e+07)
(1.21112e+08 12.0784 14534.1 1.20886e+08 57374.5 1.41204e+07)
(1.21112e+08 32.234 8300.17 1.20885e+08 57659.9 1.41191e+07)
(1.21112e+08 -21.4482 6555.11 1.20886e+08 57832.3 1.41199e+07)
(1.21113e+08 -46.7669 1598.29 1.20886e+08 57649.1 1.41199e+07)
(1.21122e+08 182.965 4042.12 1.20901e+08 57749.3 1.41328e+07)
(1.21112e+08 -29.9146 6909.32 1.20881e+08 58310.5 1.41226e+07)
(1.21118e+08 -138.816 1992.83 1.20889e+08 57830.1 1.4133e+07)
(1.21114e+08 440.165 -106.434 1.20888e+08 58099 1.41237e+07)
(1.21115e+08 -366.257 -285.923 1.20886e+08 75407.5 1.41239e+07)
(1.21112e+08 -439.552 415.158 1.20883e+08 56444 1.41198e+07)
(1.21118e+08 434.34 -884.091 1.2089e+08 57924.5 1.4131e+07)
(1.21113e+08 138.226 -1826.08 1.20884e+08 58433.6 1.41222e+07)
(1.21114e+08 641.068 -2495.69 1.20886e+08 57582.6 1.41233e+07)
(1.21116e+08 83.8681 -3526 1.2089e+08 76453.4 1.41269e+07)
(1.21113e+08 -356.24 -5223.38 1.20884e+08 58522.2 1.41236e+07)
(1.21114e+08 -182.708 -6728.03 1.20886e+08 75064.4 1.41236e+07)
(1.21113e+08 -595.5 -8448.3 1.20886e+08 57524.7 1.41217e+07)
(1.2111e+08 73.6297 -10618.8 1.20881e+08 56540.5 1.41188e+07)
(1.2111e+08 654.113 -14329 1.20886e+08 57745.4 1.41248e+07)
(1.2108e+08 108.442 -31124.2 1.20877e+08 75014.8 1.41299e+07)
(1.20848e+08 -718.793 -172448 1.20786e+08 58034.9 1.40878e+07)
(1.18867e+08 -3053.82 -1.14041e+06 1.19805e+08 55054.7 1.29335e+07)
(1.01155e+08 -2709.64 -5.15909e+06 1.11029e+08 43088 3.085e+06)