/*--------------------------------*- C++ -*----------------------------------*\
| =========                 |                                                 |
| \\      /  F ield         | OpenFOAM: The Open Source CFD Toolbox           |
|  \\    /   O peration     | Version:  2106                                  |
|   \\  /    A nd           | Website:  www.openfoam.com                      |
|    \\/     M anipulation  |                                                 |
\*---------------------------------------------------------------------------*/
FoamFile
{
    version     2.0;
    format      ascii;
    arch        "LSB;label=32;scalar=64";
    class       volTensorField;
    location    "609";
    object      testEpsilon;
}
// * * * * * * * * * * * * * * * * * * * * * * * * * * * * * * * * * * * * * //

dimensions      [0 0 0 0 0 0 0];

internalField   nonuniform List<tensor> 
9000
(
(-0.0855817 0.00384475 -0.105455 -0.00437189 -0.147117 -0.257501 0.201781 0.380317 -0.0253685)
(-0.0167735 0.00368703 -0.00285565 -0.00261148 -0.156475 -0.27037 0.021625 0.400628 -0.0697511)
(-0.0019293 0.00248176 0.00204108 -0.0018103 -0.166385 -0.287059 0.00309228 0.425371 -0.0595174)
(-0.000321067 0.000467068 0.000324642 -0.000365821 -0.167997 -0.290829 0.000580734 0.430918 -0.0573966)
(-5.53668e-05 -3.87371e-05 -2.83331e-05 2.28534e-05 -0.168078 -0.290941 0.000109953 0.431083 -0.0574087)
(-3.95265e-06 -2.3109e-05 -1.50432e-05 1.90161e-05 -0.167896 -0.290163 5.195e-05 0.429883 -0.0576822)
(-1.38581e-06 -1.21325e-06 -2.28657e-07 1.15515e-06 -0.168021 -0.29072 5.21118e-05 0.430767 -0.057567)
(3.59377e-09 -3.10075e-05 -1.8788e-05 1.91794e-05 -0.167889 -0.290151 3.45773e-05 0.429873 -0.0576817)
(-9.39019e-07 3.99247e-05 2.54612e-05 -2.70183e-05 -0.167887 -0.290142 3.71195e-05 0.429858 -0.0576889)
(-6.55702e-06 1.74869e-05 8.83395e-06 -4.21426e-06 -0.168061 -0.29083 -2.37358e-05 0.430921 -0.0574704)
(2.40721e-06 -6.44473e-05 -4.45455e-05 5.1935e-05 -0.167943 -0.290391 -5.35543e-05 0.430248 -0.0575967)
(7.83778e-06 1.75931e-05 1.37909e-05 -1.86661e-05 -0.167762 -0.289681 6.53982e-05 0.429157 -0.0578359)
(-4.58598e-06 6.00495e-05 4.13341e-05 -4.91522e-05 -0.168051 -0.290777 7.61664e-05 0.430845 -0.0574977)
(-4.33923e-06 -1.20493e-05 -1.08471e-05 1.37016e-05 -0.168068 -0.290784 -4.96761e-05 0.430869 -0.0574863)
(3.43552e-06 6.11262e-06 3.95614e-06 -4.38923e-06 -0.167955 -0.290437 -2.75154e-07 0.430312 -0.0575805)
(-2.62334e-06 1.2925e-05 1.08063e-05 -1.53032e-05 -0.168064 -0.29084 5.01783e-05 0.430935 -0.0574715)
(-2.15791e-06 -1.85467e-05 -1.44771e-05 1.92195e-05 -0.168066 -0.290779 -5.80303e-05 0.430862 -0.0574914)
(1.76305e-08 1.43176e-06 1.51527e-06 8.05871e-08 -0.167959 -0.290447 -7.52604e-06 0.430326 -0.0575721)
(-2.16675e-06 -4.47264e-05 -2.82035e-05 3.14005e-05 -0.168053 -0.290798 -2.10231e-05 0.430876 -0.0574863)
(4.62809e-06 -4.11457e-05 -2.65956e-05 2.83947e-05 -0.167774 -0.289725 -2.64446e-05 0.42922 -0.0578006)
(2.73438e-06 5.95377e-05 4.04623e-05 -4.79111e-05 -0.167874 -0.290096 3.89095e-05 0.429799 -0.057714)
(-5.70587e-06 4.59616e-05 2.94716e-05 -3.29004e-05 -0.16806 -0.290813 -1.61185e-05 0.430891 -0.0574854)
(-3.51457e-06 -3.46925e-05 -2.20306e-05 2.29247e-05 -0.168065 -0.290843 -4.24062e-05 0.430939 -0.0574679)
(4.79189e-08 -7.17287e-06 -4.1734e-06 5.54623e-06 -0.167901 -0.290181 -4.96882e-05 0.429912 -0.0576686)
(-7.81956e-06 1.20611e-05 6.84079e-06 -8.75141e-06 -0.168052 -0.290784 -5.66583e-05 0.430851 -0.0574952)
(-5.39149e-05 -2.2109e-05 -1.34364e-05 2.59855e-05 -0.167912 -0.290278 -0.000174878 0.430059 -0.0576052)
(-0.000314523 -0.000438563 -0.000306208 0.000347205 -0.167867 -0.290349 -0.000575835 0.430189 -0.0575386)
(-0.00192991 -0.00245458 -0.00202162 0.00178355 -0.166381 -0.286977 -0.00303642 0.425267 -0.0595435)
(-0.0167763 -0.00367919 0.00286078 0.00260552 -0.156473 -0.270364 -0.0216269 0.40062 -0.0697524)
(-0.085581 -0.00384673 0.105456 0.00437374 -0.147117 -0.257488 -0.201784 0.380295 -0.0253739)
(-0.072404 0.00189507 -0.103174 -0.00191769 -0.0980728 -0.0790761 0.196134 0.215444 -0.128989)
(-0.0163975 0.00216302 -0.00426129 -0.00079804 -0.103197 -0.0826099 0.020313 0.226107 -0.175005)
(-0.00180223 0.00153307 0.000977675 -0.000667755 -0.109234 -0.0876369 0.00210937 0.240106 -0.171321)
(-0.000206437 0.000315889 0.00011914 -0.000173989 -0.1104 -0.0888296 0.000341996 0.243614 -0.170638)
(-2.73913e-05 -1.71848e-05 1.22557e-06 4.54238e-06 -0.110422 -0.0888673 6.53886e-05 0.243717 -0.170684)
(-4.53645e-06 -1.65201e-05 -2.55848e-06 1.00038e-05 -0.110202 -0.0886816 6.65852e-05 0.243398 -0.170699)
(-2.14455e-06 3.90459e-07 1.24447e-06 6.34049e-07 -0.11037 -0.0887947 5.11311e-05 0.243534 -0.17071)
(-1.51781e-06 -1.00133e-05 5.92703e-06 6.58563e-06 -0.110179 -0.0886804 -1.10467e-05 0.243407 -0.170696)
(-7.68246e-07 1.51173e-05 -5.57254e-06 -1.09904e-05 -0.11018 -0.0886791 7.39395e-05 0.243392 -0.170702)
(-1.20393e-06 1.0775e-05 -1.95628e-06 3.68282e-06 -0.110395 -0.0888304 6.9515e-05 0.243596 -0.170707)
(-4.72417e-07 -2.10241e-05 8.85065e-06 2.76891e-05 -0.110297 -0.088738 -3.19143e-05 0.243854 -0.170677)
(7.05818e-08 4.10889e-07 -3.77387e-06 -1.21729e-05 -0.110076 -0.0885746 1.21433e-05 0.24362 -0.170667)
(-1.07682e-06 1.47221e-05 -7.98866e-06 -2.87069e-05 -0.110393 -0.0888025 5.5203e-05 0.243533 -0.17071)
(-7.80644e-07 3.51496e-06 3.85865e-06 9.08846e-06 -0.11037 -0.0888013 -4.01474e-07 0.243262 -0.170691)
(1.32073e-07 7.61424e-06 -7.74572e-07 -1.12937e-07 -0.110309 -0.0887542 -2.16874e-06 0.243897 -0.17068)
(-3.67577e-07 -5.29335e-06 -2.48977e-06 -1.27417e-05 -0.110398 -0.0888349 -1.57018e-06 0.24361 -0.17071)
(-2.30649e-07 -2.11644e-06 3.28735e-06 1.24429e-05 -0.110369 -0.0888005 -4.76487e-06 0.243259 -0.170693)
(-1.64329e-07 4.29843e-06 -9.12483e-07 3.31953e-06 -0.110313 -0.0887572 -5.77505e-06 0.243902 -0.170675)
(-7.61691e-07 -1.81964e-05 5.5233e-06 1.39068e-05 -0.110384 -0.088818 -5.44175e-05 0.243564 -0.17071)
(-8.07222e-07 -1.59188e-05 6.0458e-06 1.20798e-05 -0.110084 -0.088591 -6.15843e-05 0.243677 -0.170665)
(-8.13503e-07 1.65729e-05 -9.97866e-06 -2.48858e-05 -0.110164 -0.0886587 1.94908e-05 0.243347 -0.170691)
(-9.62245e-07 1.91919e-05 -5.88154e-06 -1.5355e-05 -0.110405 -0.0888199 1.57307e-05 0.243565 -0.170713)
(-1.13971e-06 -1.11223e-05 6.47503e-06 8.94129e-06 -0.110397 -0.0888354 -8.19875e-05 0.243611 -0.170708)
(-1.61334e-06 -6.16157e-06 -1.22016e-06 2.67835e-06 -0.110196 -0.0886948 -4.53316e-05 0.243427 -0.170694)
(-5.22191e-06 1.02299e-05 2.09087e-06 -3.39123e-06 -0.110398 -0.0888114 -6.1479e-05 0.243536 -0.170711)
(-2.776e-05 -1.54731e-06 7.43611e-06 2.14052e-05 -0.110214 -0.0887214 -0.00011098 0.243538 -0.170669)
(-0.000206207 -0.000311777 -0.000124847 0.00016487 -0.110288 -0.0887211 -0.000295552 0.243831 -0.170607)
(-0.00180237 -0.0015253 -0.000980817 0.000650026 -0.109198 -0.0875938 -0.00211021 0.239742 -0.171319)
(-0.0163975 -0.00215495 0.00426092 0.000796641 -0.103195 -0.0826067 -0.0203179 0.2261 -0.175003)
(-0.0724029 -0.00189763 0.103174 0.00192021 -0.0980764 -0.0790756 -0.196135 0.215423 -0.128989)
(-0.0763053 -0.00107823 -0.104039 0.00342365 -0.0575544 -0.00938271 0.197533 0.125715 -0.153403)
(-0.0165235 0.00145486 -0.0045678 0.000287918 -0.060217 -0.0111291 0.0202993 0.132424 -0.201966)
(-0.00180449 0.00104117 0.000797126 -2.19361e-06 -0.0633659 -0.01163 0.00194073 0.141066 -0.199929)
(-0.000186607 0.000229367 7.85616e-05 -3.29611e-05 -0.0641019 -0.0117949 0.000262055 0.143584 -0.199628)
(-1.85682e-05 7.71805e-07 1.28227e-06 -2.53548e-06 -0.064104 -0.0118058 0.00011271 0.143681 -0.199687)
(-4.73431e-06 -1.25772e-05 -5.18939e-07 2.28649e-06 -0.0639983 -0.0118166 7.13238e-05 0.143911 -0.199648)
(-2.06943e-06 3.51531e-06 -2.29016e-09 8.65888e-07 -0.0640744 -0.0117936 5.05743e-05 0.143547 -0.199696)
(-2.32129e-06 6.94889e-06 4.31852e-06 2.01973e-06 -0.063992 -0.0118335 3.99318e-05 0.144124 -0.199667)
(-1.51958e-06 -3.25623e-06 -4.53642e-06 -2.4571e-06 -0.0640005 -0.0118255 2.02902e-05 0.144101 -0.199671)
(1.17887e-06 -5.90465e-06 -2.93571e-06 3.68802e-07 -0.0640767 -0.0117965 2.13828e-05 0.143593 -0.199701)
(-7.63929e-07 -7.82437e-07 6.61302e-06 7.25494e-06 -0.0640653 -0.011813 3.02057e-05 0.143559 -0.199687)
(-3.44142e-06 -1.71019e-06 8.88261e-07 -3.67379e-06 -0.0639774 -0.0118414 8.29235e-06 0.144081 -0.199649)
(-3.33718e-07 1.22947e-06 -4.0065e-06 -8.12905e-06 -0.0640564 -0.0117852 -3.61922e-05 0.143361 -0.199656)
(1.37956e-06 4.78353e-06 -1.18895e-06 2.88838e-06 -0.0640082 -0.0117995 2.21836e-06 0.143602 -0.199683)
(-9.30502e-07 6.28774e-07 -2.75898e-06 4.094e-07 -0.0640703 -0.0118127 2.68934e-05 0.143591 -0.199691)
(-1.12179e-07 1.00851e-06 1.54882e-06 -3.15137e-06 -0.0640786 -0.0117989 -3.55074e-05 0.143607 -0.199702)
(1.05433e-06 -1.65142e-06 1.07205e-06 2.56844e-06 -0.0640078 -0.0118004 -5.2613e-07 0.1436 -0.199686)
(3.10426e-07 -1.71137e-06 -1.99712e-06 2.28979e-06 -0.0640723 -0.0118129 2.53687e-05 0.14359 -0.199691)
(-4.14701e-07 1.17949e-06 5.0232e-06 3.50048e-06 -0.0640706 -0.0117907 9.94477e-07 0.143567 -0.1997)
(-3.13043e-06 2.93656e-06 5.26652e-06 2.67449e-06 -0.0639813 -0.0118471 -6.73312e-06 0.144096 -0.199653)
(-2.75256e-06 -4.69453e-06 -5.31222e-06 -6.3509e-06 -0.0639825 -0.0118286 -3.73977e-05 0.144107 -0.199657)
(1.05954e-06 -6.06741e-07 -5.86722e-06 -4.50045e-06 -0.0640674 -0.0117854 -4.08595e-05 0.143379 -0.199683)
(9.20924e-08 7.12235e-06 2.97839e-06 3.05617e-06 -0.0640768 -0.0117985 -2.91634e-05 0.143608 -0.199703)
(-2.41859e-06 -7.35555e-06 6.37145e-07 -5.9692e-07 -0.064011 -0.0118322 -4.33342e-05 0.144121 -0.199667)
(-4.07419e-06 8.4514e-06 1.53838e-06 -3.69626e-07 -0.0640716 -0.0117827 -6.24571e-05 0.143356 -0.199676)
(-2.02626e-05 -2.68465e-07 4.62244e-06 9.53555e-06 -0.0640238 -0.0118381 -9.85002e-05 0.14421 -0.19965)
(-0.000188798 -0.000235303 -8.06887e-05 3.06064e-05 -0.0640791 -0.0118067 -0.000298866 0.143521 -0.19961)
(-0.00180355 -0.00103591 -0.00079875 -2.55091e-06 -0.0632929 -0.0116222 -0.00195284 0.141019 -0.199916)
(-0.0165222 -0.00145497 0.00456442 -0.000288894 -0.060215 -0.0111279 -0.0202749 0.132419 -0.201963)
(-0.0763025 0.00107351 0.104037 -0.0034185 -0.0575637 -0.0093793 -0.19753 0.125686 -0.153405)
(-0.0818785 -0.00282258 -0.107655 0.00645347 -0.0351669 0.00543985 0.204395 0.0763797 -0.154293)
(-0.0170827 0.00100071 -0.00471075 0.00075969 -0.0372329 0.00345653 0.0209875 0.0810778 -0.205378)
(-0.0018664 0.000756084 0.00084452 0.000233746 -0.0391077 0.00393208 0.0021327 0.0872852 -0.203493)
(-0.000206505 0.000168282 8.39776e-05 3.25768e-05 -0.0396307 0.00401794 0.000297789 0.0889559 -0.203203)
(-2.03418e-05 3.54335e-06 -3.11743e-06 -5.0771e-06 -0.0396399 0.00401802 8.74258e-05 0.0890486 -0.203268)
(-3.85618e-06 -1.06034e-05 -1.02937e-07 -2.8889e-06 -0.0395809 0.00398838 7.19799e-05 0.0888717 -0.203236)
(-2.1979e-06 1.65194e-06 -2.13013e-06 8.99917e-07 -0.0396052 0.00401564 6.96176e-05 0.0888199 -0.203264)
(-2.18241e-06 4.77512e-06 -4.58166e-07 -1.68908e-06 -0.0396223 0.00398596 3.86254e-05 0.0890184 -0.203286)
(-1.09843e-06 -1.83165e-06 1.82886e-06 2.83572e-06 -0.0396166 0.00399157 2.30239e-05 0.0888657 -0.203248)
(7.3848e-07 -2.18795e-06 5.38353e-07 2.88205e-06 -0.0396147 0.00401645 2.2671e-05 0.0889873 -0.20328)
(-1.28093e-06 -1.14693e-06 -1.26107e-07 -2.79603e-06 -0.0396097 0.00401106 2.93947e-05 0.0889662 -0.203276)
(-3.00622e-06 2.19026e-06 1.80024e-06 -6.67553e-07 -0.0396143 0.00398062 -1.11784e-05 0.0889793 -0.203253)
(2.35618e-07 8.55409e-06 3.84383e-07 3.32275e-06 -0.0395691 0.00400166 -7.83637e-06 0.0890043 -0.203259)
(9.27047e-07 7.33446e-07 -1.64568e-06 1.31586e-06 -0.0395902 0.00399309 2.2382e-05 0.0893423 -0.203285)
(-1.07588e-06 -6.4603e-06 -6.56296e-07 -5.00431e-07 -0.0396076 0.00401102 -8.41541e-07 0.0889947 -0.203279)
(6.42303e-08 7.19541e-06 -3.13938e-08 9.92659e-07 -0.0396161 0.00401352 -7.52175e-06 0.0890033 -0.203283)
(8.57582e-07 -8.70401e-07 4.92692e-07 -3.52587e-07 -0.0395909 0.00399302 -7.78002e-07 0.0893394 -0.203289)
(2.20794e-08 -8.24648e-06 1.02688e-06 -2.06501e-07 -0.0396078 0.00401085 -1.2935e-06 0.0889939 -0.20328)
(-6.8475e-07 1.90569e-08 -1.31536e-06 -3.14081e-06 -0.0396116 0.00401898 -1.16349e-06 0.0889667 -0.203257)
(-2.7775e-06 1.68994e-06 -1.53268e-06 -3.18719e-06 -0.039616 0.00398034 -9.55159e-06 0.0890009 -0.203279)
(-2.24849e-06 -6.59937e-07 2.35762e-06 2.8929e-06 -0.0396178 0.00398463 -5.4782e-05 0.0889997 -0.203261)
(9.19168e-07 3.29526e-07 1.37741e-07 2.80759e-06 -0.0395798 0.00401276 -3.97376e-05 0.0889807 -0.203252)
(-3.59007e-07 1.60325e-07 -2.87664e-06 -2.69971e-06 -0.0396122 0.00401456 -1.10465e-05 0.0890067 -0.203284)
(-2.2985e-06 -5.11469e-06 1.93298e-06 -2.57611e-06 -0.0396215 0.00399133 -6.33854e-05 0.088874 -0.20327)
(-3.19542e-06 7.67327e-06 8.98043e-07 2.04181e-06 -0.0395743 0.00401284 -6.27298e-05 0.0888278 -0.203228)
(-2.15648e-05 -3.04964e-06 2.63786e-06 3.43902e-06 -0.0396476 0.00398908 -7.4153e-05 0.0890751 -0.203265)
(-0.000208624 -0.000165604 -8.16579e-05 -2.97553e-05 -0.0396171 0.00401106 -0.00030341 0.0889118 -0.203193)
(-0.00186627 -0.000752476 -0.000845065 -0.000232494 -0.0390839 0.00391277 -0.00214738 0.0875893 -0.203466)
(-0.0170807 -0.00100909 0.0047095 -0.000762018 -0.0372314 0.00345681 -0.0209936 0.0810746 -0.205375)
(-0.0818827 0.00281403 0.107651 -0.00644352 -0.0351574 0.00544529 -0.204387 0.0762205 -0.154278)
(-0.0860591 -0.00311451 -0.11208 0.00667143 -0.0220583 0.00482882 0.212821 0.0479404 -0.152286)
(-0.0177674 0.000666678 -0.00486936 0.000874726 -0.0235782 0.00285463 0.0219738 0.0506935 -0.205728)
(-0.00194991 0.000561613 0.000909407 0.000263288 -0.0249319 0.00331628 0.00241027 0.0554675 -0.203766)
(-0.000234372 0.000122925 9.57505e-05 4.96511e-05 -0.025287 0.00340422 0.000326794 0.0565173 -0.203435)
(-2.56613e-05 1.07274e-05 -4.62916e-06 4.67217e-08 -0.0252881 0.0034069 8.70426e-05 0.0564947 -0.203495)
(-3.53891e-06 -5.62634e-06 -9.94711e-07 -3.82208e-06 -0.025244 0.00338911 5.00111e-05 0.0568012 -0.203526)
(-1.82947e-06 -4.77573e-06 -4.85838e-07 -8.85134e-07 -0.0252446 0.00339961 6.57022e-05 0.0564369 -0.203504)
(-1.93413e-06 4.6589e-06 -4.95465e-07 -1.87082e-07 -0.0252822 0.00340779 3.63591e-05 0.0565783 -0.203528)
(-6.05355e-07 -1.72806e-06 1.56214e-06 1.41967e-06 -0.0252559 0.00339977 2.57496e-05 0.056589 -0.203516)
(5.25221e-08 -4.52553e-06 9.62251e-07 1.37849e-07 -0.025285 0.00340236 4.11516e-05 0.0565633 -0.203503)
(-1.47385e-06 -7.01703e-07 -5.53005e-07 -3.40862e-06 -0.0252669 0.00340191 2.498e-05 0.0564424 -0.203506)
(-2.21767e-06 6.41283e-06 -9.92325e-07 1.54048e-06 -0.0252826 0.00340506 8.00095e-06 0.0565615 -0.203511)
(6.29643e-08 6.05825e-06 -1.51265e-06 3.7714e-06 -0.0252725 0.00338475 -4.01158e-06 0.056777 -0.20353)
(6.14928e-07 -2.91155e-06 6.82718e-07 4.64556e-07 -0.0252996 0.00339569 3.70674e-06 0.0566218 -0.203526)
(-9.95142e-07 -4.55535e-06 1.32666e-06 2.65171e-07 -0.0252772 0.00340169 2.39404e-07 0.0565714 -0.20352)
(-8.26104e-08 4.35075e-06 -2.04999e-06 7.19606e-07 -0.0252876 0.00340359 -6.92883e-06 0.0565723 -0.203521)
(8.14495e-07 -3.52382e-09 5.38206e-07 -6.66026e-07 -0.0253002 0.00339651 -2.10413e-06 0.0566182 -0.203529)
(-2.47219e-07 -5.84602e-06 3.19433e-06 -1.03655e-06 -0.0252768 0.00340115 -8.28155e-07 0.0565712 -0.203522)
(-1.01084e-06 -4.62689e-07 -1.07884e-06 -2.96583e-06 -0.0252846 0.00340115 -5.29049e-06 0.0565614 -0.203492)
(-1.92369e-06 1.68386e-06 -1.60378e-06 -1.89185e-06 -0.0252815 0.00340472 -1.33214e-05 0.0565665 -0.203523)
(-1.55361e-06 2.54514e-06 1.17237e-06 2.9454e-06 -0.0252819 0.00340455 -3.02284e-05 0.056578 -0.203518)
(-5.89798e-08 5.15837e-07 1.18869e-07 3.22793e-06 -0.0252601 0.003388 -3.49974e-05 0.0566749 -0.203519)
(-9.84649e-07 -1.21444e-06 -1.30799e-06 -1.10659e-06 -0.0252787 0.00340153 -4.94836e-05 0.0565805 -0.203525)
(-1.47028e-06 2.30497e-07 2.93616e-07 -2.23671e-06 -0.0252634 0.00340893 -6.16442e-05 0.0565713 -0.203518)
(-2.87117e-06 3.24368e-06 1.08735e-06 1.74138e-06 -0.02524 0.00338233 -4.27331e-05 0.0566633 -0.203506)
(-2.6622e-05 -8.82454e-06 4.26576e-06 -7.66539e-07 -0.0253028 0.0034087 -7.69445e-05 0.0566116 -0.203504)
(-0.000235985 -0.00012256 -9.59502e-05 -5.02658e-05 -0.0252854 0.003407 -0.000330592 0.0564789 -0.203424)
(-0.00195001 -0.000558779 -0.0009096 -0.000260395 -0.024949 0.00330315 -0.00241932 0.0555082 -0.203761)
(-0.0177644 -0.000669677 0.00487093 -0.000873978 -0.0235775 0.00285513 -0.0220005 0.0506898 -0.205727)
(-0.086066 0.00310946 0.112055 -0.00666242 -0.0220264 0.00482608 -0.212771 0.0479234 -0.152276)
(-0.0887437 -0.00259491 -0.115941 0.00539155 -0.0139506 0.0025613 0.220178 0.0303732 -0.151259)
(-0.0183643 0.000425987 -0.00501326 0.000792299 -0.0148826 0.000987833 0.0229201 0.0317687 -0.206542)
(-0.00203142 0.000414327 0.000954437 0.000225397 -0.0159395 0.00130453 0.00267033 0.035067 -0.204479)
(-0.000259154 9.70488e-05 0.000102101 5.03573e-05 -0.0161926 0.00135438 0.000366098 0.0360743 -0.204177)
(-3.10364e-05 1.21484e-05 -6.13746e-06 3.58909e-06 -0.0161813 0.00135533 0.000104176 0.0361549 -0.204246)
(-4.04255e-06 -1.90298e-06 -1.56089e-06 -3.10248e-06 -0.0161989 0.00134836 6.27238e-05 0.0363206 -0.204285)
(-1.4709e-06 -5.98766e-06 1.60408e-06 -1.72563e-06 -0.0161537 0.00134638 4.85291e-05 0.0361746 -0.204265)
(-1.72144e-06 2.50136e-06 -4.25739e-07 5.6413e-07 -0.0161938 0.00135803 5.0126e-05 0.0361385 -0.204273)
(-1.03344e-06 -2.40605e-06 7.43181e-07 -9.31456e-07 -0.0161863 0.00134962 2.64172e-05 0.036289 -0.204284)
(-2.27179e-07 -4.37436e-06 9.65588e-07 -1.34753e-06 -0.0161863 0.00134889 9.7354e-06 0.0360447 -0.204259)
(-1.00041e-06 -6.60948e-07 4.15371e-07 -2.59847e-06 -0.0161655 0.00134897 2.15165e-05 0.0361252 -0.204262)
(-1.57021e-06 1.07321e-06 -1.63058e-06 -7.92034e-07 -0.0161881 0.00135248 2.32647e-05 0.0360369 -0.204235)
(2.04324e-08 5.15045e-06 -1.49131e-06 4.5211e-06 -0.0162058 0.00135134 -7.34096e-08 0.0360605 -0.20426)
(2.25802e-07 -2.1985e-07 1.74199e-06 1.92409e-06 -0.0162061 0.00136082 5.03112e-06 0.0361617 -0.20427)
(-1.02487e-06 -4.04444e-06 9.23758e-07 -1.05048e-06 -0.0161926 0.00135305 9.51963e-07 0.0361336 -0.204266)
(-1.22009e-07 2.60326e-06 -1.06746e-06 1.09826e-06 -0.0161901 0.0013539 -6.33495e-06 0.0360397 -0.204257)
(5.0635e-07 1.27928e-06 5.39851e-09 3.42211e-07 -0.0162061 0.00136156 -2.90539e-06 0.0361576 -0.204272)
(-4.37881e-07 -5.12648e-06 1.9539e-06 -3.36967e-06 -0.016192 0.00135282 -2.47642e-06 0.0361351 -0.204268)
(-8.55809e-07 -9.12783e-07 -6.01186e-07 -2.05721e-06 -0.0161896 0.00134375 -8.02075e-06 0.0360456 -0.204236)
(-1.59525e-06 2.22625e-06 -8.51589e-07 4.58449e-07 -0.0161986 0.00135825 -1.41343e-05 0.0361266 -0.204267)
(-1.22454e-06 3.61538e-06 -9.8674e-07 2.30923e-06 -0.0162016 0.00135645 -4.25211e-05 0.0361343 -0.204248)
(1.08771e-07 9.6996e-07 -4.67758e-07 2.78886e-06 -0.0161826 0.0013461 -3.19765e-05 0.0361642 -0.204271)
(-1.45194e-06 -5.01355e-07 1.31046e-06 -3.41627e-07 -0.0161926 0.00135264 -1.81626e-05 0.0361413 -0.204273)
(-1.72891e-06 2.62837e-06 -1.90655e-06 -1.29538e-06 -0.0161836 0.00135227 -6.18522e-05 0.0361925 -0.204252)
(-2.90138e-06 -2.11206e-07 8.50889e-07 1.06608e-06 -0.0161748 0.00134035 -5.77145e-05 0.0362085 -0.204266)
(-3.19662e-05 -1.21263e-05 7.57199e-06 -4.39535e-06 -0.0162121 0.00135988 -8.09481e-05 0.0361535 -0.204246)
(-0.00026055 -9.4832e-05 -0.000102767 -4.9879e-05 -0.0161883 0.00135453 -0.000387952 0.0359565 -0.204135)
(-0.00203101 -0.000410909 -0.000955438 -0.000222266 -0.015948 0.00130988 -0.00267395 0.0350795 -0.204496)
(-0.0183611 -0.000424576 0.00501408 -0.000790818 -0.0148824 0.000989373 -0.0229261 0.0317643 -0.206539)
(-0.0887428 0.00259838 0.115913 -0.00539312 -0.0139381 0.00255409 -0.220123 0.0305112 -0.151263)
(-0.090401 -0.0018596 -0.118772 0.00378944 -0.00882086 0.00124346 0.225578 0.0192346 -0.150979)
(-0.0188006 0.000268894 -0.00512071 0.000627542 -0.00929877 0.000148322 0.0236891 0.0198349 -0.207534)
(-0.0020983 0.000299611 0.000982717 0.000176054 -0.0101002 0.000350338 0.00287174 0.0222768 -0.20547)
(-0.000278734 7.45667e-05 0.000105912 4.19865e-05 -0.0103127 0.000378331 0.000444084 0.0229574 -0.205149)
(-3.63533e-05 9.47583e-06 -5.8346e-06 4.09009e-06 -0.0103202 0.000378013 0.000109602 0.0231452 -0.205217)
(-4.60186e-06 -1.1279e-07 -2.78563e-06 -1.89336e-06 -0.0103374 0.000384873 4.57838e-05 0.0230532 -0.205249)
(-1.09614e-06 -3.75825e-06 1.44884e-06 -1.62904e-06 -0.0103014 0.000372161 4.82497e-05 0.0231444 -0.205235)
(-1.7753e-06 -1.84805e-06 1.52261e-07 -9.19735e-07 -0.0103187 0.000378992 4.86741e-05 0.0230178 -0.205248)
(-9.87687e-07 -2.23563e-07 -2.6647e-07 -2.82026e-07 -0.0103283 0.000379377 1.18281e-05 0.0230342 -0.20525)
(-2.8088e-07 -3.77231e-07 8.31722e-07 -8.98956e-09 -0.0102969 0.000374151 2.39718e-05 0.0230185 -0.205244)
(-1.36275e-06 -1.06627e-06 1.66243e-07 -2.45913e-06 -0.0103069 0.000373542 1.88828e-05 0.023127 -0.205253)
(-7.93754e-07 -1.63739e-06 -5.17435e-07 -1.86286e-06 -0.0103022 0.000371732 -6.24351e-06 0.0230167 -0.205235)
(6.0619e-07 2.45878e-06 1.54715e-07 3.30749e-06 -0.010303 0.00038025 1.76599e-05 0.0229444 -0.205231)
(-4.99387e-07 -2.69083e-07 1.02557e-06 1.31474e-06 -0.0103256 0.000381738 2.02612e-05 0.0230318 -0.205244)
(-1.16031e-06 -1.36751e-06 -5.77375e-08 -4.43102e-07 -0.0103184 0.000376471 -1.33785e-05 0.0230136 -0.205242)
(1.95927e-07 1.64827e-06 -3.49742e-07 1.22254e-06 -0.0102999 0.000375923 -5.15192e-06 0.0230154 -0.205239)
(-7.90901e-08 -3.71372e-07 3.23524e-07 -4.05949e-07 -0.0103255 0.000381811 1.08962e-05 0.0230287 -0.205245)
(-7.27103e-07 -2.54102e-06 -3.67046e-07 -2.85537e-06 -0.0103178 0.000377133 -1.92578e-05 0.0230144 -0.205244)
(-2.45215e-07 -1.78404e-06 6.64482e-09 -2.08088e-06 -0.0103038 0.000368045 -9.60349e-06 0.023019 -0.20524)
(-1.0504e-06 -7.20444e-07 9.3551e-07 -1.01679e-06 -0.0103142 0.000377618 3.56259e-08 0.0229266 -0.205233)
(-1.08752e-06 5.74287e-06 -1.25687e-06 3.88634e-06 -0.0103211 0.000373735 -2.56406e-05 0.0229417 -0.205216)
(-5.89151e-07 2.32222e-06 -6.42019e-07 3.65623e-06 -0.0103187 0.000379701 -2.91897e-05 0.0231486 -0.205257)
(-1.8015e-06 -1.40804e-06 -7.50604e-08 -1.25631e-06 -0.0103179 0.000377345 -4.76662e-05 0.0230202 -0.205249)
(-1.18874e-06 3.77822e-06 -2.16473e-06 2.55163e-07 -0.0103104 0.0003732 -6.14018e-05 0.0230424 -0.205242)
(-3.49116e-06 -2.46103e-06 2.60966e-06 -2.64611e-07 -0.0103058 0.000376976 -4.22652e-05 0.0230772 -0.205241)
(-3.6811e-05 -1.15117e-05 7.10197e-06 -6.07304e-06 -0.0103224 0.00037913 -0.000100909 0.0229415 -0.20521)
(-0.000279559 -6.97416e-05 -0.000105951 -3.84925e-05 -0.0103008 0.000369665 -0.000449336 0.0229487 -0.205114)
(-0.0020982 -0.000297611 -0.000982631 -0.000173848 -0.0101056 0.000357472 -0.00286391 0.0222766 -0.205465)
(-0.0187986 -0.000267697 0.00511977 -0.000627825 -0.00929991 0.000151435 -0.0236938 0.0198275 -0.207529)
(-0.0903961 0.00186602 0.118757 -0.00379847 -0.00882776 0.00124163 -0.225552 0.0192599 -0.150984)
(-0.0914198 -0.00121562 -0.120643 0.00244174 -0.00556894 0.000652343 0.229148 0.0121466 -0.150955)
(-0.019087 0.000170127 -0.00519188 0.000452292 -0.00576967 -5.17503e-05 0.0242857 0.0123487 -0.208325)
(-0.00214853 0.000211538 0.00100044 0.000132962 -0.00637961 7.49401e-05 0.00302951 0.0141545 -0.206271)
(-0.000293546 5.30484e-05 0.000107635 3.03837e-05 -0.0065381 9.19516e-05 0.000466537 0.0145591 -0.205942)
(-3.98124e-05 7.21294e-06 -4.829e-06 3.66866e-06 -0.00655962 9.03974e-05 0.00011314 0.0146362 -0.206008)
(-5.18638e-06 1.85558e-06 -2.73125e-06 2.70833e-07 -0.00655832 9.90344e-05 5.78777e-05 0.0146323 -0.206043)
(-1.27618e-06 -2.25274e-06 4.27936e-07 -1.634e-06 -0.00655262 9.23205e-05 4.59059e-05 0.0147302 -0.206052)
(-1.45204e-06 -2.88889e-06 1.0175e-06 -1.30533e-06 -0.00654619 9.16917e-05 3.44313e-05 0.0146118 -0.206045)
(-8.51295e-07 1.96712e-06 -2.25145e-07 1.14486e-06 -0.00655187 9.64878e-05 2.60987e-05 0.01462 -0.206046)
(-6.62601e-07 -9.19646e-08 -2.01427e-07 -4.34973e-07 -0.00653863 9.32485e-05 2.36666e-05 0.0147089 -0.20605)
(-1.37118e-06 -1.72397e-06 -6.82913e-08 -2.72618e-06 -0.00654996 9.21202e-05 1.63078e-05 0.0146192 -0.206044)
(-4.16888e-07 1.86272e-06 -2.88936e-07 9.39446e-07 -0.00653414 8.68809e-05 -5.98165e-06 0.0146357 -0.20604)
(6.55951e-07 4.6611e-07 5.09915e-07 1.87369e-06 -0.0065275 9.07083e-05 6.24333e-06 0.0147194 -0.206043)
(-5.24317e-07 -3.30795e-06 9.86081e-07 -1.43933e-06 -0.00654959 9.25841e-05 1.9701e-05 0.014621 -0.206041)
(-1.04331e-06 1.08728e-06 -2.39234e-07 7.79485e-07 -0.006547 8.92005e-05 4.17299e-07 0.0146084 -0.206041)
(-1.14578e-07 1.19184e-06 6.54682e-10 1.16954e-06 -0.00653993 9.16092e-05 -3.91955e-06 0.0147079 -0.206048)
(-3.09231e-07 -2.28538e-06 2.47427e-07 -1.62695e-06 -0.00654939 9.23077e-05 -3.65667e-06 0.0146186 -0.206043)
(-7.72867e-07 -7.91059e-07 -7.99285e-07 -1.83969e-06 -0.00654555 9.04859e-05 -6.85018e-06 0.0146094 -0.206042)
(-4.88094e-07 -2.06163e-07 -5.04373e-07 -6.73657e-07 -0.00653923 8.91059e-05 -2.39225e-05 0.0146305 -0.206041)
(-4.01809e-07 -1.24064e-06 2.86304e-07 -1.25327e-06 -0.00652984 8.74526e-05 -2.8638e-05 0.0146082 -0.206035)
(-2.89932e-07 2.7171e-06 -5.69975e-07 2.25293e-06 -0.00652631 8.29248e-05 -9.4726e-06 0.0145438 -0.206031)
(-9.19758e-07 1.6046e-06 2.54227e-07 3.02155e-06 -0.00655696 9.54057e-05 -1.27611e-05 0.0146322 -0.206046)
(-2.13215e-06 1.16655e-06 1.01894e-08 6.10118e-07 -0.00654567 9.16807e-05 -3.42879e-05 0.0146139 -0.206046)
(-1.53057e-06 5.04885e-06 -1.9802e-06 2.3433e-06 -0.00654602 9.29149e-05 -6.02169e-05 0.014725 -0.206052)
(-4.16702e-06 -2.61284e-06 2.03687e-06 -8.90603e-07 -0.00654181 9.64952e-05 -6.91393e-05 0.0147382 -0.206044)
(-3.96118e-05 -1.112e-05 6.10971e-06 -7.35646e-06 -0.00653402 8.98868e-05 -9.31758e-05 0.0146165 -0.206011)
(-0.000294105 -5.14753e-05 -0.000107098 -2.89585e-05 -0.00653284 8.30648e-05 -0.000453872 0.0145748 -0.205934)
(-0.00214888 -0.000210729 -0.000999084 -0.000131048 -0.00638388 7.74587e-05 -0.00303462 0.0141529 -0.206263)
(-0.0190861 -0.000169008 0.00519091 -0.000452306 -0.00577201 -5.23715e-05 -0.0242926 0.0123467 -0.2083)
(-0.0914164 0.00122155 0.120634 -0.00245052 -0.00557325 0.000656906 -0.229134 0.0121601 -0.150959)
(-0.0920471 -0.000750449 -0.121802 0.00149037 -0.00351606 0.000380235 0.23136 0.00764994 -0.150979)
(-0.0192624 0.000106759 -0.00523619 0.000302656 -0.00357498 -5.16094e-05 0.0246842 0.00768337 -0.208848)
(-0.00218268 0.000145926 0.00101146 9.82839e-05 -0.00402847 2.86227e-05 0.00314867 0.00885618 -0.206796)
(-0.000304592 3.85642e-05 0.000109003 2.29101e-05 -0.00413991 3.70376e-05 0.000493887 0.00921178 -0.206478)
(-4.23758e-05 5.43247e-06 -4.41804e-06 3.17944e-06 -0.00415757 3.67776e-05 0.000114365 0.00926882 -0.20656)
(-5.66239e-06 1.28746e-06 -2.40102e-06 5.514e-07 -0.00415604 3.94398e-05 5.75665e-05 0.00926822 -0.20658)
(-1.41138e-06 -1.33291e-06 -1.97092e-08 -1.22679e-06 -0.00416125 4.19597e-05 4.45114e-05 0.00927449 -0.206586)
(-1.21953e-06 -1.69829e-06 9.85719e-07 -8.05577e-07 -0.00414857 3.66396e-05 3.41474e-05 0.00925523 -0.206585)
(-8.13616e-07 1.28942e-06 4.48885e-08 4.59327e-07 -0.00415156 3.85593e-05 2.68647e-05 0.00926012 -0.206583)
(-1.05509e-06 4.35183e-09 -4.17857e-08 -4.62717e-07 -0.00415498 3.97795e-05 2.32343e-05 0.00926698 -0.20657)
(-1.08787e-06 -1.6967e-07 -1.10726e-06 -9.92065e-07 -0.00415089 4.03128e-05 1.26977e-06 0.0092598 -0.206581)
(1.2622e-07 2.85635e-06 -7.99829e-07 1.87675e-06 -0.00413935 3.54104e-05 8.40269e-06 0.00926841 -0.206577)
(1.30435e-07 -6.30683e-07 1.29534e-06 6.26568e-07 -0.00415157 3.82246e-05 2.0641e-05 0.00935886 -0.206586)
(-7.18227e-07 -4.17074e-06 7.24023e-07 -2.66038e-06 -0.0041503 3.6762e-05 5.094e-06 0.00926203 -0.20658)
(-6.38536e-07 5.64645e-07 -2.52707e-07 1.12485e-07 -0.00415255 3.58579e-05 5.47684e-07 0.00925124 -0.206581)
(-2.8536e-07 1.17145e-06 2.71692e-07 1.25548e-06 -0.00415474 3.71811e-05 -2.91177e-06 0.00926761 -0.206571)
(-6.80937e-07 -1.49462e-06 9.8862e-08 -9.14979e-07 -0.00414977 3.65009e-05 -4.57053e-06 0.00926042 -0.206582)
(-5.36445e-07 -5.09307e-07 -1.0074e-06 -1.7102e-06 -0.00414874 3.44174e-05 -2.08555e-05 0.00925415 -0.206582)
(-1.27931e-07 1.35709e-06 -6.00013e-07 7.11103e-07 -0.00413652 3.45254e-05 -1.03342e-05 0.00919733 -0.206557)
(-4.65087e-07 1.86338e-06 -3.00718e-07 1.69279e-06 -0.00414673 3.53587e-05 -1.54954e-05 0.00933924 -0.206584)
(-2.3256e-07 3.18849e-07 3.33753e-07 8.07853e-07 -0.00412975 3.17469e-05 -2.14979e-05 0.00935064 -0.206584)
(-9.17714e-07 -1.55025e-06 1.10916e-06 9.94778e-08 -0.00415496 4.13695e-05 -1.16807e-05 0.0092681 -0.206583)
(-1.93715e-06 7.8075e-07 -5.73229e-07 4.15346e-07 -0.00414821 3.71584e-05 -3.39782e-05 0.00925763 -0.206585)
(-1.48889e-06 4.5506e-06 -1.20182e-06 2.88234e-06 -0.0041584 3.98258e-05 -4.51999e-05 0.00927374 -0.206585)
(-5.43111e-06 -6.26989e-08 2.00405e-06 5.28996e-07 -0.00416094 4.4124e-05 -5.57625e-05 0.00936736 -0.206584)
(-4.24246e-05 -9.71673e-06 4.4159e-06 -7.21224e-06 -0.00414611 3.61943e-05 -0.000125369 0.00934503 -0.206561)
(-0.000304298 -3.97121e-05 -0.000108437 -2.3891e-05 -0.00412936 3.12274e-05 -0.000494614 0.00914461 -0.206463)
(-0.00218286 -0.000145446 -0.00100972 -9.65074e-05 -0.00403126 2.79686e-05 -0.00313836 0.0088541 -0.206788)
(-0.0192625 -0.000105571 0.00523566 -0.000302025 -0.00357576 -5.59693e-05 -0.0246874 0.0076821 -0.208843)
(-0.092046 0.000755359 0.1218 -0.00149714 -0.00351671 0.000384772 -0.231357 0.00765853 -0.150982)
(-0.0924327 -0.000447444 -0.122494 0.000881224 -0.00222663 0.000235558 0.232678 0.00480056 -0.151002)
(-0.0193654 6.76464e-05 -0.00526221 0.000192814 -0.00222322 -2.50168e-05 0.0249414 0.00478075 -0.209169)
(-0.00220448 9.85525e-05 0.00101817 7.06191e-05 -0.00254186 2.54686e-05 0.00323535 0.00556146 -0.207125)
(-0.000312567 2.72282e-05 0.000109266 1.67905e-05 -0.00262687 2.84065e-05 0.000514908 0.00581536 -0.206815)
(-4.42842e-05 3.98628e-06 -4.34857e-06 2.51279e-06 -0.00264492 2.75269e-05 0.000119212 0.00585939 -0.206888)
(-6.06762e-06 1.11826e-06 -1.69482e-06 9.88704e-07 -0.00264022 2.85326e-05 5.74235e-05 0.00585758 -0.206919)
(-1.54757e-06 -7.57553e-07 -1.32095e-07 -7.96745e-07 -0.00264283 3.28021e-05 4.34189e-05 0.00586001 -0.206923)