/*--------------------------------*- C++ -*----------------------------------*\
| =========                 |                                                 |
| \\      /  F ield         | OpenFOAM: The Open Source CFD Toolbox           |
|  \\    /   O peration     | Version:  2106                                  |
|   \\  /    A nd           | Website:  www.openfoam.com                      |
|    \\/     M anipulation  |                                                 |
\*---------------------------------------------------------------------------*/
FoamFile
{
    version     2.0;
    format      ascii;
    arch        "LSB;label=32;scalar=64";
    class       volVectorField;
    location    "1258";
    object      D;
}
// * * * * * * * * * * * * * * * * * * * * * * * * * * * * * * * * * * * * * //

dimensions      [0 1 0 0 0 0 0];

internalField   nonuniform List<vector> 
9000
(
(-2.06152 3.35998 -0.755072)
(-0.904658 2.78796 0.523208)
(-0.541855 2.47762 1.142)
(-0.491354 2.55391 2.03099)
(-0.859226 2.49842 2.42653)
(-1.30514 1.99691 1.80647)
(-1.32107 1.20187 0.445258)
(-0.756974 0.526186 -0.778953)
(0.0504783 0.300395 -1.13792)
(0.616237 0.543582 -0.563687)
(0.679166 0.994439 0.434138)
(0.334949 1.33605 1.19074)
(-0.0954524 1.39222 1.34035)
(-0.348941 1.19602 0.97007)
(-0.371102 0.903509 0.387888)
(-0.200898 0.683841 -0.129539)
(0.152894 0.674083 -0.341327)
(0.592381 0.946779 -0.0131254)
(0.786718 1.42616 0.822748)
(0.468586 1.83478 1.57865)
(-0.162581 1.90538 1.58592)
(-0.558765 1.62415 0.770732)
(-0.350325 1.27834 -0.185846)
(0.246051 1.19695 -0.453142)
(0.627092 1.4152 0.112802)
(0.451533 1.63013 0.843866)
(-0.000980529 1.53396 1.00169)
(-0.208738 1.17241 0.581493)
(-0.0155808 0.890444 0.155045)
(0.385358 0.89654 -0.0814064)
(-1.82693 4.01616 -1.80952)
(-0.792662 2.92199 -0.236465)
(-0.553562 2.26269 0.459048)
(-0.533592 1.93977 1.19876)
(-0.823474 1.69364 1.54579)
(-1.17005 1.41152 1.12707)
(-1.15564 1.142 0.132278)
(-0.655157 0.947736 -0.773606)
(0.0416054 0.866392 -1.03525)
(0.52254 0.884468 -0.599696)
(0.570986 0.935679 0.15257)
(0.2755 0.968595 0.719439)
(-0.0855754 0.957533 0.826762)
(-0.291084 0.903863 0.548264)
(-0.304505 0.84355 0.113744)
(-0.163626 0.83618 -0.283359)
(0.132741 0.922829 -0.47224)
(0.512508 1.08006 -0.260655)
(0.689148 1.23847 0.355237)
(0.421475 1.3569 0.924093)
(-0.122959 1.43651 0.918006)
(-0.467704 1.49293 0.271416)
(-0.287875 1.54126 -0.487026)
(0.23024 1.57539 -0.702065)
(0.561681 1.56798 -0.254229)
(0.410309 1.4769 0.339269)
(0.0198741 1.2888 0.503082)
(-0.160673 1.06238 0.219837)
(-0.00127714 0.934908 -0.0958482)
(0.348721 1.02107 -0.343926)
(-1.47485 4.53527 -1.47994)
(-0.695179 3.05873 -0.0651292)
(-0.599032 2.15944 0.514867)
(-0.60661 1.59999 1.05533)
(-0.803477 1.23726 1.29657)
(-1.03099 1.07959 0.962116)
(-0.975656 1.11877 0.189457)
(-0.544078 1.21074 -0.512912)
(0.0272321 1.2181 -0.718897)
(0.410193 1.10561 -0.390358)
(0.441032 0.920507 0.177722)
(0.20204 0.769605 0.60078)
(-0.0778243 0.71815 0.6716)
(-0.226046 0.749517 0.452129)
(-0.225981 0.829216 0.119352)
(-0.114161 0.950806 -0.183325)
(0.119415 1.0973 -0.329338)
(0.429789 1.18825 -0.167544)
(0.58351 1.15778 0.312826)
(0.373819 1.10642 0.760943)
(-0.0682109 1.19469 0.764205)
(-0.352299 1.45489 0.268534)
(-0.208514 1.74006 -0.31617)
(0.211693 1.84423 -0.478923)
(0.476028 1.7018 -0.127551)
(0.343321 1.42478 0.331371)
(0.0199126 1.17542 0.448366)
(-0.124904 1.02269 0.212927)
(0.00567482 0.983676 -0.0478148)
(0.276236 1.12135 -0.260641)
(-1.0441 4.69876 -0.723343)
(-0.62186 3.01928 0.349825)
(-0.667004 2.0097 0.74985)
(-0.696117 1.34725 1.08187)
(-0.790499 0.93642 1.20395)
(-0.886189 0.851014 0.924266)
(-0.783296 1.05561 0.338534)
(-0.425295 1.30142 -0.187642)
(0.00949028 1.36037 -0.347338)
(0.285145 1.18447 -0.117485)
(0.296596 0.879643 0.281337)
(0.12003 0.635099 0.571622)
(-0.0703478 0.564147 0.607566)
(-0.155428 0.642236 0.43932)
(-0.139141 0.797952 0.19747)
(-0.0562649 0.987336 -0.0163536)
(0.110754 1.16081 -0.113358)
(0.344107 1.21123 0.01617)
(0.470311 1.07995 0.381124)
(0.324106 0.94083 0.723917)
(-0.00346035 1.03337 0.742182)
(-0.219576 1.39614 0.394358)
(-0.117372 1.79935 -0.0207362)
(0.190033 1.9369 -0.130175)
(0.374652 1.72487 0.129508)
(0.257973 1.35463 0.452998)
(0.00677301 1.0794 0.50832)
(-0.0955711 0.971471 0.297621)
(0.00930051 0.980764 0.0794165)
(0.176926 1.14397 -0.0774581)
(-0.588292 4.47169 0.102577)
(-0.563279 2.77712 0.780705)
(-0.738514 1.77807 0.992678)
(-0.783953 1.11463 1.13248)
(-0.776604 0.710237 1.14328)
(-0.740662 0.665736 0.909941)
(-0.589853 0.937566 0.492791)
(-0.306107 1.24452 0.126954)
(-0.00913162 1.32861 0.00955508)
(0.15822 1.13666 0.149101)
(0.150347 0.795858 0.392306)
(0.0373328 0.523412 0.560196)
(-0.062522 0.449406 0.563751)
(-0.0841179 0.548044 0.442248)
(-0.0512752 0.734035 0.284073)
(0.0034627 0.945966 0.152856)
(0.104226 1.12008 0.102887)
(0.259103 1.14506 0.205229)
(0.356159 0.973529 0.465608)
(0.274135 0.803508 0.71274)
(0.0634554 0.895246 0.746373)
(-0.0832406 1.28589 0.536591)
(-0.0243111 1.71949 0.279692)
(0.166142 1.86195 0.220571)
(0.267341 1.62675 0.395333)
(0.165464 1.23261 0.59148)
(-0.0125791 0.96318 0.585899)
(-0.0703044 0.886905 0.393874)
(0.00996016 0.919354 0.213675)
(0.0645105 1.08434 0.116419)
(-0.151703 3.91581 0.842239)
(-0.506582 2.37177 1.14623)
(-0.795789 1.48047 1.19214)
(-0.85435 0.886209 1.17169)
(-0.755998 0.525477 1.09012)
(-0.601485 0.502093 0.897377)
(-0.408477 0.776007 0.625136)
(-0.195052 1.08141 0.397431)
(-0.0266763 1.17172 0.316854)
(0.0401059 0.99476 0.378858)
(0.0147957 0.674751 0.487947)
(-0.038617 0.419792 0.550156)
(-0.0543138 0.355015 0.52565)
(-0.017485 0.45701 0.444728)
(0.0301042 0.641738 0.359351)
(0.0584823 0.844465 0.299746)
(0.097718 1.00059 0.289957)
(0.179401 1.00983 0.368251)
(0.249023 0.838123 0.538638)
(0.226816 0.674688 0.704118)
(0.125175 0.761375 0.751759)
(0.0429618 1.12886 0.66115)
(0.0607841 1.533 0.540381)
(0.141246 1.66001 0.524516)
(0.164228 1.43226 0.62606)
(0.0765931 1.06209 0.712102)
(-0.0324933 0.822724 0.653829)
(-0.0483468 0.773075 0.477871)
(0.00697432 0.813903 0.330156)
(-0.049777 0.962959 0.285481)
(0.234899 3.13476 1.41467)
(-0.442595 1.86687 1.41221)
(-0.826972 1.15042 1.33112)
(-0.897064 0.666325 1.18977)
(-0.725307 0.36966 1.03949)
(-0.474456 0.354942 0.881555)
(-0.249338 0.591704 0.726032)
(-0.098881 0.857037 0.609315)
(-0.0421203 0.940668 0.558436)
(-0.061653 0.796153 0.558079)
(-0.101108 0.530868 0.559477)
(-0.102554 0.321253 0.536811)
(-0.0458566 0.273933 0.489849)
(0.0404086 0.369097 0.442104)
(0.0994162 0.532807 0.415975)
(0.104017 0.706365 0.413919)
(0.0898197 0.83339 0.435072)
(0.108671 0.833418 0.492344)
(0.155127 0.685446 0.590276)
(0.184659 0.550567 0.691124)
(0.176597 0.629373 0.750714)
(0.149142 0.94333 0.755429)
(0.130785 1.28235 0.742809)
(0.116379 1.38121 0.760806)
(0.0729361 1.17839 0.803499)
(-0.000550818 0.861105 0.801681)
(-0.0486963 0.667755 0.702584)
(-0.0290815 0.643935 0.541409)
(-1.72675e-06 0.68629 0.419599)
(-0.158823 0.809937 0.414833)
(0.552436 2.24282 1.78262)
(-0.367606 1.32846 1.5684)
(-0.827116 0.822565 1.40708)
(-0.907899 0.465339 1.1851)
(-0.683417 0.239344 0.990022)
(-0.362956 0.225928 0.861328)
(-0.118106 0.406237 0.79397)
(-0.0215643 0.611944 0.760284)
(-0.055382 0.680943 0.731287)
(-0.143454 0.575732 0.683659)
(-0.192904 0.380624 0.604404)
(-0.15185 0.229752 0.518421)
(-0.0373021 0.204361 0.455058)
(0.0873506 0.287824 0.433004)
(0.153651 0.420314 0.451983)
(0.137531 0.554568 0.492665)
(0.0798564 0.647812 0.535045)
(0.0489865 0.642976 0.5743)
(0.0779564 0.530258 0.617559)
(0.149235 0.433983 0.671035)
(0.215297 0.503622 0.74029)
(0.230315 0.750447 0.815766)
(0.182086 1.00832 0.882429)
(0.0922317 1.07283 0.924284)
(-0.00221219 0.902299 0.922602)
(-0.0611752 0.651311 0.85615)
(-0.0582185 0.512218 0.729347)
(-0.0114994 0.515359 0.582906)
(-0.0105732 0.55839 0.48078)
(-0.259248 0.655597 0.501888)
(0.79125 1.34634 1.94193)
(-0.282612 0.813235 1.62088)
(-0.797068 0.524647 1.4266)
(-0.887697 0.292797 1.16075)
(-0.631005 0.134457 0.942211)
(-0.268051 0.118647 0.837768)
(-0.0162746 0.237535 0.832711)
(0.0355549 0.377973 0.856333)
(-0.0671224 0.428306 0.841533)
(-0.20519 0.361722 0.759901)
(-0.260154 0.238507 0.6245)
(-0.186243 0.148789 0.495005)
(-0.028803 0.146612 0.421056)
(0.122826 0.217244 0.417947)
(0.192148 0.315546 0.46889)
(0.158512 0.407931 0.538477)
(0.0677777 0.467549 0.593177)
(0.000913952 0.460593 0.617297)
(0.0184403 0.385866 0.621966)
(0.12119 0.329826 0.643615)
(0.24119 0.390391 0.720368)
(0.28586 0.568857 0.844295)
(0.214235 0.743969 0.963967)
(0.0691846 0.773045 1.02029)
(-0.0598645 0.635061 0.987098)
(-0.103421 0.452242 0.877413)
(-0.0592249 0.369388 0.735628)
(0.00581588 0.401068 0.605052)
(-0.0236385 0.447986 0.517923)
(-0.350464 0.5247 0.55295)
(0.949553 0.533028 1.9131)
(-0.191576 0.363089 1.58638)
(-0.741486 0.27445 1.4016)
(-0.840663 0.154418 1.12269)
(-0.569935 0.0552583 0.898062)
(-0.189091 0.0360069 0.813643)
(0.0577388 0.0978286 0.849297)
(0.0731211 0.176599 0.908402)
(-0.0784674 0.207156 0.900764)
(-0.249282 0.173849 0.795681)
(-0.305373 0.115203 0.624344)
(-0.20723 0.0815635 0.467928)
(-0.0205377 0.101449 0.388483)
(0.14757 0.160459 0.398729)
(0.215995 0.226573 0.470417)
(0.16794 0.27978 0.55709)
(0.0539685 0.309119 0.616718)
(-0.0361018 0.301591 0.628367)
(-0.0243706 0.262005 0.607835)
(0.100476 0.24257 0.61051)
(0.255863 0.295199 0.692957)
(0.318302 0.412154 0.84689)
(0.229068 0.512312 0.997775)
(0.0474145 0.508404 1.06054)
(-0.100828 0.39896 1.00621)
(-0.127594 0.278631 0.871272)
(-0.0507805 0.249439 0.725834)
(0.0245076 0.310743 0.613233)
(-0.0375705 0.366787 0.538639)
(-0.433601 0.433203 0.580124)
(1.03234 -0.13351 1.73318)
(-0.0995731 0.00370928 1.48712)
(-0.666815 0.0796565 1.34614)
(-0.772681 0.0511808 1.07811)
(-0.502654 0.000667795 0.860522)
(-0.124401 -0.0212074 0.792734)
(0.107353 -0.0068804 0.852261)
(0.0930215 0.0191659 0.929506)
(-0.0907306 0.0308868 0.922916)
(-0.279601 0.023266 0.801977)
(-0.332827 0.0169581 0.609964)
(-0.217392 0.0300134 0.4394)
(-0.012736 0.0691656 0.358551)
(0.163061 0.118971 0.377832)
(0.22735 0.157842 0.461364)
(0.167696 0.177713 0.555763)
(0.039054 0.18187 0.614699)
(-0.0632905 0.174479 0.61625)
(-0.0525317 0.164188 0.580947)
(0.0866204 0.174994 0.574556)
(0.261849 0.221447 0.661396)
(0.331973 0.288075 0.831323)
(0.229768 0.326188 0.99674)
(0.0270132 0.293932 1.05958)
(-0.127176 0.207095 0.991827)
(-0.135336 0.139514 0.845583)
(-0.0326021 0.158507 0.705936)
(0.0462389 0.249465 0.614102)
(-0.050428 0.319879 0.552035)
(-0.510432 0.386904 0.598221)
(1.0502 -0.615296 1.44828)
(-0.011327 -0.254289 1.34679)
(-0.579678 -0.0606667 1.27403)
(-0.689966 -0.0204017 1.03411)
(-0.431708 -0.0325215 0.832818)
(-0.0718679 -0.0549833 0.779108)
(0.136764 -0.0764266 0.850182)
(0.0977442 -0.0917693 0.932567)
(-0.105175 -0.0965787 0.921917)
(-0.300523 -0.0864538 0.789966)
(-0.347478 -0.0542382 0.587718)
(-0.219784 -0.00557272 0.41199)
(-0.00569217 0.0491488 0.332724)
(0.17107 0.0925178 0.357911)
(0.228836 0.11039 0.446707)
(0.160049 0.104204 0.541955)
(0.0237447 0.0889087 0.596295)
(-0.0821652 0.0818433 0.589796)
(-0.0685524 0.0939034 0.547386)
(0.0789501 0.127657 0.539091)
(0.262003 0.169864 0.629576)
(0.331876 0.198754 0.805753)
(0.220056 0.189519 0.973951)
(0.00809148 0.134634 1.03221)
(-0.141473 0.0642829 0.956294)
(-0.128911 0.0384096 0.808787)
(-0.0048339 0.0986558 0.682354)
(0.0725265 0.217961 0.614447)
(-0.0601542 0.306083 0.567145)
(-0.582447 0.381547 0.621927)
(1.0178 -0.898923 1.10731)
(0.0696529 -0.412891 1.18769)
(-0.485863 -0.153897 1.19722)
(-0.598159 -0.0673885 0.996683)
(-0.359411 -0.0498234 0.817868)
(-0.0293594 -0.0701904 0.776461)
(0.15019 -0.115613 0.850632)
(0.0899198 -0.160627 0.928959)
(-0.122829 -0.178755 0.910119)
(-0.316217 -0.157811 0.769706)
(-0.354179 -0.100016 0.563474)
(-0.217465 -0.0265709 0.388203)
(0.000234502 0.039738 0.312443)
(0.173332 0.0791886 0.341401)
(0.223084 0.0823669 0.430955)
(0.147279 0.0575623 0.52241)
(0.00873826 0.0284386 0.569744)
(-0.094233 0.0216522 0.556918)
(-0.0749375 0.0492703 0.512735)
(0.0767201 0.0988814 0.507387)
(0.259018 0.138497 0.601281)
(0.322848 0.14152 0.777648)
(0.203608 0.0990958 0.941139)
(-0.00913885 0.0276014 0.991725)
(-0.1462 -0.0314093 0.910954)
(-0.110671 -0.0259213 0.768862)
(0.0321217 0.0683361 0.661161)
(0.104624 0.213221 0.620388)
(-0.0647642 0.318853 0.591766)
(-0.650191 0.404007 0.663399)
(0.951938 -0.992603 0.756693)
(0.141354 -0.483713 1.02887)
(-0.38984 -0.211604 1.12498)
(-0.501859 -0.0993155 0.970175)
(-0.287674 -0.0588543 0.817751)
(0.00502524 -0.0743221 0.787553)
(0.151422 -0.133149 0.859464)
(0.0720504 -0.196946 0.92763)
(-0.144349 -0.224514 0.897378)
(-0.330154 -0.197717 0.74933)
(-0.357128 -0.124776 0.542086)
(-0.213182 -0.0357993 0.370181)
(0.00462425 0.0382899 0.298898)
(0.171316 0.075689 0.330235)
(0.212428 0.0696827 0.417729)
(0.131441 0.0330133 0.502596)
(-0.00532456 -0.00484673 0.541718)
(-0.10081 -0.0113808 0.524012)
(-0.0739179 0.0258864 0.481567)
(0.0791662 0.085046 0.482216)
(0.255102 0.123033 0.579678)
(0.309028 0.109939 0.753055)
(0.183699 0.0464746 0.907738)
(-0.0243019 -0.0358074 0.94893)
(-0.143371 -0.0869271 0.865237)
(-0.0827174 -0.0584585 0.732639)
(0.0777106 0.0630769 0.64755)
(0.143429 0.229254 0.636861)
(-0.0625266 0.347424 0.631636)
(-0.712868 0.434274 0.730391)
(0.86953 -0.92202 0.436485)
(0.203115 -0.485044 0.885108)
(-0.29472 -0.247584 1.06355)
(-0.404513 -0.127118 0.956962)
(-0.217965 -0.0688807 0.833282)
(0.0328289 -0.0769829 0.813736)
(0.143609 -0.140546 0.880337)
(0.046393 -0.213676 0.934626)
(-0.169931 -0.246204 0.890594)
(-0.344809 -0.215935 0.734643)
(-0.359537 -0.134806 0.527092)
(-0.209171 -0.0371645 0.359482)
(0.00699977 0.0413655 0.292859)
(0.166087 0.0776776 0.325652)
(0.198731 0.0666629 0.409505)
(0.114249 0.0237082 0.486401)
(-0.0178596 -0.018492 0.517034)
(-0.102921 -0.0245621 0.4957)
(-0.0673328 0.0176997 0.457185)
(0.0854939 0.0810599 0.465549)
(0.251771 0.117323 0.566939)
(0.293564 0.0948932 0.736149)
(0.16302 0.0197052 0.880392)
(-0.0368054 -0.0679977 0.911612)
(-0.134312 -0.112584 0.826176)
(-0.0466948 -0.0668306 0.705399)
(0.131263 0.0762297 0.64551)
(0.189389 0.257826 0.667307)
(-0.0521449 0.378092 0.689896)
(-0.768171 0.447995 0.824949)
(0.785877 -0.72547 0.177522)
(0.255243 -0.43911 0.766451)
(-0.20247 -0.276274 1.01606)
(-0.308535 -0.162162 0.957292)
(-0.151353 -0.0901898 0.863661)
(0.0551935 -0.089184 0.854576)
(0.129211 -0.151015 0.914408)
(0.0149483 -0.225675 0.952867)
(-0.199237 -0.258048 0.893537)
(-0.36152 -0.223737 0.728995)
(-0.363477 -0.13745 0.520589)
(-0.207073 -0.0352452 0.356955)
(0.00682241 0.0449954 0.294555)
(0.158242 0.0801394 0.32806)
(0.183309 0.0666748 0.407461)
(0.0970463 0.021628 0.475992)
(-0.0283108 -0.0212038 0.498563)
(-0.101254 -0.0261821 0.474789)
(-0.0566181 0.017803 0.441529)
(0.0948266 0.0809159 0.458362)
(0.249728 0.114014 0.563977)
(0.278486 0.085621 0.728967)
(0.143622 0.00484446 0.862724)
(-0.0457925 -0.083448 0.884355)
(-0.119542 -0.120592 0.798214)
(-0.00371408 -0.0602604 0.690684)
(0.191964 0.0996914 0.657657)
(0.242361 0.289146 0.713463)
(-0.0329404 0.395516 0.766747)
(-0.812272 0.419378 0.942696)
(0.713251 -0.44869 -0.000203189)
(0.298554 -0.369613 0.678053)
(-0.114253 -0.311491 0.982671)
(-0.215534 -0.215371 0.969235)
(-0.0886118 -0.133299 0.9062)
(0.0728597 -0.122465 0.907556)
(0.110028 -0.178342 0.960132)
(-0.020489 -0.248349 0.982062)
(-0.231341 -0.274768 0.906842)
(-0.380438 -0.232795 0.733294)
(-0.369828 -0.140366 0.523211)
(-0.207906 -0.0348543 0.362684)
(0.00348064 0.0449976 0.303595)
(0.147875 0.0777852 0.33695)
(0.166915 0.062724 0.411402)
(0.0808291 0.0183788 0.47178)
(-0.0361066 -0.0219552 0.487265)
(-0.0961485 -0.0246751 0.462337)
(-0.0428489 0.0191178 0.435194)
(0.106138 0.0782733 0.460545)
(0.248803 0.105242 0.570286)
(0.264677 0.0707308 0.731259)
(0.126933 -0.0127177 0.855264)
(-0.0500956 -0.097269 0.86853)
(-0.0987294 -0.123759 0.783188)
(0.0456545 -0.0485946 0.690265)
(0.258762 0.124586 0.68517)
(0.301449 0.312529 0.775248)
(-0.00503969 0.384069 0.859269)
(-0.839979 0.324268 1.07274)
(0.659847 -0.139674 -0.0881144)
(0.333936 -0.29954 0.620357)
(-0.0307865 -0.365392 0.960734)
(-0.126578 -0.296381 0.988697)
(-0.0303334 -0.208 0.956158)
(0.0861843 -0.187836 0.967895)
(0.0872883 -0.235685 1.01317)
(-0.0582598 -0.296339 1.01872)
(-0.264695 -0.31034 0.928086)
(-0.400536 -0.254206 0.746105)
(-0.37831 -0.150842 0.534186)
(-0.212098 -0.0406021 0.375992)
(-0.00372556 0.0373303 0.318937)
(0.134582 0.0654866 0.350847)
(0.149771 0.0480512 0.419721)
(0.066298 0.00592419 0.472444)
(-0.0406144 -0.0292195 0.482298)
(-0.0876011 -0.0279265 0.4578)
(-0.0268008 0.0149826 0.437514)
(0.118195 0.0670479 0.470883)
(0.247939 0.0833795 0.583864)
(0.251915 0.0392126 0.740435)
(0.113819 -0.0470203 0.855475)
(-0.0481939 -0.123919 0.862392)
(-0.0706851 -0.134349 0.780463)
(0.101329 -0.0414367 0.704239)
(0.330234 0.141916 0.727809)
(0.36479 0.317094 0.850674)
(0.0304406 0.329237 0.961382)
(-0.845113 0.143218 1.19817)
(0.62914 0.156191 -0.0886278)
(0.362006 -0.2492 0.58949)
(0.0473546 -0.447548 0.945091)
(-0.0424311 -0.412654 1.00952)
(0.022968 -0.322234 1.00672)
(0.0951663 -0.294521 1.0285)
(0.0617298 -0.334218 1.0664)
(-0.0967776 -0.382143 1.05628)
(-0.297142 -0.376735 0.951956)
(-0.41967 -0.297534 0.763802)
(-0.387573 -0.175164 0.551457)
(-0.219545 -0.0564759 0.395511)
(-0.0155967 0.0184702 0.338907)
(0.117494 0.0387592 0.36731)
(0.131628 0.0167685 0.429429)
(0.0539231 -0.0226878 0.475016)
(-0.041107 -0.0502676 0.481161)
(-0.075287 -0.0426691 0.4592)
(-0.00900864 -0.000314071 0.44669)
(0.129526 0.0420036 0.487119)
(0.245236 0.0418355 0.601237)
(0.238962 -0.0184843 0.751606)
(0.104663 -0.110268 0.857852)
(-0.038192 -0.175967 0.861262)
(-0.0334137 -0.163045 0.787163)
(0.163623 -0.0473902 0.731231)
(0.404454 0.14319 0.78401)
(0.42938 0.292573 0.935835)
(0.071244 0.219123 1.06396)
(-0.821094 -0.135587 1.2972)
(0.619938 0.400394 -0.0137957)
(0.38294 -0.234489 0.577898)
(0.119549 -0.564017 0.928437)
(0.0362733 -0.568463 1.02367)
(0.0707856 -0.480796 1.04919)
(0.099488 -0.448502 1.08013)
(0.0336929 -0.48159 1.11015)
(-0.134497 -0.514582 1.08536)
(-0.325983 -0.482577 0.970547)
(-0.434734 -0.369806 0.780823)
(-0.395362 -0.217998 0.571881)
(-0.229702 -0.0854562 0.419314)
(-0.0330286 -0.0141993 0.361276)
(0.0953473 -0.00569424 0.383)
(0.11185 -0.0354299 0.436247)
(0.0440051 -0.0725535 0.475034)
(-0.0367534 -0.0904712 0.47991)
(-0.0586041 -0.0739194 0.463359)
(0.0101831 -0.0310311 0.459982)
(0.138434 -0.000664223 0.506103)
(0.238064 -0.0240952 0.6176)
(0.223716 -0.109256 0.757761)
(0.099452 -0.211441 0.854164)
(-0.0178497 -0.262812 0.857834)
(0.0157695 -0.218013 0.798514)
(0.233121 -0.0734208 0.768676)
(0.478885 0.121047 0.851061)
(0.490973 0.230261 1.025)
(0.113917 0.0460787 1.15518)
(-0.761682 -0.513677 1.34481)
(0.627179 0.564726 0.116856)
(0.396499 -0.265361 0.575243)
(0.185077 -0.716345 0.90186)
(0.108945 -0.763722 1.02171)
(0.112594 -0.683921 1.07342)
(0.0985844 -0.650924 1.11191)
(0.00320825 -0.680185 1.13272)
(-0.169931 -0.697079 1.09434)
(-0.34816 -0.631664 0.973893)
(-0.441963 -0.474443 0.790114)
(-0.39879 -0.281822 0.591544)
(-0.241707 -0.129202 0.445119)
(-0.0569732 -0.0620192 0.383427)
(0.0666027 -0.0693884 0.39385)
(0.0895328 -0.110468 0.434834)
(0.0367243 -0.146071 0.466827)
(-0.0266525 -0.152583 0.473469)
(-0.0367493 -0.124435 0.466194)
(0.0305766 -0.079514 0.473978)
(0.14308 -0.0627863 0.52405)
(0.223281 -0.116353 0.627122)
(0.203449 -0.236022 0.750153)
(0.0978722 -0.354721 0.833918)
(0.0152962 -0.389286 0.842665)
(0.0800035 -0.304012 0.808318)
(0.310518 -0.124364 0.813213)
(0.550383 0.0698167 0.925402)
(0.544181 0.124111 1.1109)
(0.153937 -0.19155 1.22115)
(-0.661795 -0.980043 1.31503)
(0.643292 0.633617 0.279151)
(0.402295 -0.344559 0.56958)
(0.243207 -0.900489 0.855663)
(0.175036 -0.992709 0.993566)
(0.147874 -0.925871 1.06871)
(0.0917574 -0.89648 1.11219)
(-0.0299014 -0.925332 1.12134)
(-0.201724 -0.925855 1.07034)
(-0.360575 -0.821436 0.950877)
(-0.437416 -0.610233 0.783847)
(-0.394748 -0.366464 0.606208)
(-0.254535 -0.187867 0.470581)
(-0.0883435 -0.124756 0.402608)
(0.0296556 -0.151449 0.395388)
(0.0636654 -0.207037 0.4192)
(0.0321706 -0.242053 0.443987)
(-0.00992403 -0.236015 0.456098)
(-0.00884935 -0.194222 0.463141)
(0.0520773 -0.145835 0.484981)
(0.141645 -0.143784 0.536935)
(0.197605 -0.233284 0.623464)
(0.175176 -0.39633 0.719013)
(0.0994063 -0.537776 0.785197)
(0.0636764 -0.55419 0.805003)
(0.162471 -0.421589 0.809622)
(0.396397 -0.202648 0.861161)
(0.615343 -0.014071 1.00305)
(0.582878 -0.0281443 1.18529)
(0.186123 -0.487676 1.24707)
(-0.518323 -1.50943 1.18382)
(0.66006 0.605135 0.447583)
(0.400227 -0.46674 0.54892)
(0.293419 -1.10586 0.780633)
(0.234122 -1.24294 0.929891)
(0.176188 -1.19377 1.02521)
(0.0783456 -1.17211 1.07013)
(-0.0658928 -1.20373 1.06381)
(-0.228802 -1.18829 1.00085)
(-0.360591 -1.04163 0.890653)
(-0.41767 -0.770541 0.754481)
(-0.380473 -0.46888 0.611949)
(-0.267196 -0.260124 0.493671)
(-0.127848 -0.200463 0.416316)
(-0.01686 -0.24809 0.383264)
(0.0333375 -0.319792 0.383396)
(0.030349 -0.354906 0.400127)
(0.0141274 -0.336207 0.422101)
(0.0258386 -0.280176 0.449746)
(0.0746418 -0.227635 0.489517)
(0.13259 -0.240459 0.541038)
(0.158162 -0.369008 0.600582)
(0.136198 -0.58109 0.654703)
(0.103453 -0.750098 0.696043)
(0.129262 -0.748909 0.734073)
(0.265767 -0.566524 0.795653)
(0.490943 -0.308341 0.909145)
(0.670047 -0.131998 1.08023)
(0.601009 -0.224071 1.23992)
(0.205414 -0.827023 1.21902)
(-0.330919 -2.06149 0.932696)
(0.670691 0.49037 0.598891)
(0.391049 -0.618283 0.503187)
(0.335736 -1.31484 0.669848)
(0.28605 -1.49467 0.824007)
(0.197302 -1.46721 0.93595)
(0.0579576 -1.45645 0.977793)
(-0.104938 -1.49263 0.950814)
(-0.250566 -1.46199 0.876075)
(-0.346687 -1.27352 0.784695)
(-0.380722 -0.943034 0.696218)
(-0.354268 -0.583365 0.605968)
(-0.278963 -0.343545 0.513126)
(-0.175752 -0.285631 0.422786)
(-0.073665 -0.352352 0.354018)
(-0.00199971 -0.438814 0.322537)
(0.0311608 -0.474073 0.32997)
(0.045777 -0.444272 0.3668)
(0.0676566 -0.376021 0.422441)
(0.0982109 -0.320287 0.484966)
(0.115003 -0.347169 0.533646)
(0.103226 -0.513229 0.55381)
(0.0848064 -0.773755 0.549393)
(0.109469 -0.971783 0.556508)
(0.212968 -0.956485 0.620955)
(0.391044 -0.729746 0.761087)
(0.593583 -0.439739 0.954818)
(0.711225 -0.283662 1.15407)
(0.593827 -0.456238 1.26796)
(0.208041 -1.18449 1.12649)
(-0.102822 -2.58114 0.553015)
(0.671574 0.310858 0.715566)
(0.376954 -0.778254 0.426507)
(0.371112 -1.50342 0.521003)
(0.331127 -1.72171 0.674462)
(0.21135 -1.71935 0.799403)
(0.0307535 -1.72088 0.832931)
(-0.14693 -1.76052 0.778983)
(-0.267132 -1.71521 0.692007)
(-0.319211 -1.49044 0.629417)
(-0.327003 -1.1104 0.606799)
(-0.316322 -0.702465 0.587507)
(-0.289622 -0.435498 0.52891)
(-0.231601 -0.375825 0.421552)
(-0.140372 -0.454358 0.306059)
(-0.0422494 -0.549645 0.234131)
(0.0343686 -0.584081 0.230765)
(0.0846036 -0.547217 0.287767)
(0.116234 -0.472774 0.379474)
(0.12263 -0.417612 0.470271)
(0.0889958 -0.456628 0.513827)
(0.0330539 -0.651821 0.481192)
(0.0211116 -0.950468 0.399235)
(0.117131 -1.17337 0.361384)
(0.313957 -1.15171 0.461041)
(0.537018 -0.898156 0.70357)
(0.702597 -0.594819 0.997618)
(0.736775 -0.46856 1.2234)
(0.559445 -0.713148 1.26572)
(0.192931 -1.52615 0.965587)
(0.158114 -3.00106 0.0510243)
(0.663445 0.0936782 0.788789)
(0.362078 -0.921122 0.319603)
(0.401837 -1.6437 0.339102)
(0.370325 -1.89452 0.487965)
(0.219008 -1.92039 0.62238)
(-0.00227754 -1.93302 0.642027)
(-0.191306 -1.97047 0.554318)
(-0.279548 -1.90991 0.453945)
(-0.281079 -1.66045 0.429179)
(-0.260304 -1.25277 0.489508)
(-0.269453 -0.81904 0.558788)
(-0.299714 -0.534882 0.542603)
(-0.29398 -0.467097 0.414003)
(-0.215077 -0.542437 0.240776)
(-0.0864194 -0.634284 0.119629)
(0.0395651 -0.665566 0.10391)
(0.129248 -0.629086 0.186209)
(0.170215 -0.560084 0.321918)
(0.147586 -0.513465 0.446641)
(0.0560594 -0.56165 0.483186)
(-0.0493456 -0.768633 0.384901)
(-0.052206 -1.0818 0.206849)
(0.1265 -1.31754 0.113399)
(0.429038 -1.30303 0.256894)
(0.699108 -1.05701 0.62538)
(0.814825 -0.774165 1.03941)
(0.746532 -0.68911 1.28937)
(0.500333 -0.982307 1.23448)
(0.162949 -1.81291 0.742702)
(0.437871 -3.24705 -0.546667)
(0.6517 -0.136218 0.820779)
(0.352703 -1.02209 0.192785)
(0.431858 -1.70983 0.140385)
(0.405509 -1.98744 0.283793)
(0.221698 -2.04514 0.424452)
(-0.0391446 -2.06438 0.424909)
(-0.236973 -2.08756 0.297138)
(-0.289942 -2.00864 0.181388)
(-0.238149 -1.7524 0.200506)
(-0.188253 -1.35283 0.356256)
(-0.219524 -0.930348 0.526916)
(-0.310738 -0.64542 0.558633)
(-0.36049 -0.55878 0.404617)
(-0.294233 -0.605673 0.164128)
(-0.132522 -0.673632 -0.0136945)
(0.0461876 -0.697726 -0.0431279)
(0.177358 -0.673518 0.0687253)
(0.227191 -0.628978 0.255168)
(0.172615 -0.604753 0.418848)
(0.0192465 -0.65845 0.447226)
(-0.137865 -0.849144 0.273207)
(-0.129535 -1.13679 -0.0156816)
(0.138162 -1.36351 -0.172963)
(0.552512 -1.37726 0.0219596)
(0.869224 -1.19502 0.536262)
(0.925799 -0.986677 1.08651)
(0.742901 -0.956836 1.35758)
(0.424104 -1.257 1.18385)
(0.125112 -2.0085 0.479465)
(0.713979 -3.24783 -1.18624)
(0.64535 -0.367211 0.830493)
(0.356735 -1.06666 0.0749939)
(0.466984 -1.68974 -0.0343745)
(0.43978 -1.99287 0.109871)
(0.221816 -2.08795 0.25534)
(-0.0769582 -2.10548 0.232085)
(-0.28254 -2.09373 0.0585988)
(-0.301542 -1.98826 -0.0767877)
(-0.198909 -1.74806 -0.0142608)
(-0.121829 -1.40604 0.239771)
(-0.175147 -1.04636 0.51457)
(-0.325309 -0.782452 0.593302)
(-0.428258 -0.659214 0.408182)
(-0.373178 -0.638893 0.0921715)
(-0.177821 -0.652049 -0.14837)
(0.0536503 -0.662793 -0.192682)
(0.225983 -0.668506 -0.047857)
(0.284135 -0.677183 0.195034)
(0.197318 -0.697359 0.402398)
(-0.0170456 -0.75301 0.42289)
(-0.223912 -0.887262 0.167746)
(-0.202901 -1.09036 -0.239756)
(0.15331 -1.2753 -0.463703)
(0.677127 -1.34882 -0.209639)
(1.03715 -1.31482 0.466235)
(1.03086 -1.26145 1.16531)
(0.731123 -1.30538 1.45528)
(0.342498 -1.55033 1.14928)
(0.0880464 -2.09481 0.229983)
(0.952932 -2.95152 -1.76996)
(0.653458 -0.617717 0.881087)
(0.381539 -1.06824 0.0526472)
(0.5148 -1.60898 -0.0624641)
(0.478059 -1.95004 0.114206)
(0.223031 -2.0935 0.273229)
(-0.112536 -2.09659 0.222219)
(-0.327132 -2.0172 -0.00763274)
(-0.318532 -1.86703 -0.178047)
(-0.172947 -1.66621 -0.088473)
(-0.0731207 -1.44184 0.248588)
(-0.146101 -1.20808 0.61146)
(-0.347264 -0.988322 0.719791)
(-0.495439 -0.798312 0.484869)
(-0.447861 -0.652618 0.0753974)
(-0.219692 -0.565512 -0.239903)
(0.0616892 -0.553794 -0.301463)
(0.272783 -0.615248 -0.116439)
(0.338752 -0.719946 0.195681)
(0.221982 -0.818755 0.458335)
(-0.0479762 -0.874452 0.475296)
(-0.298747 -0.898553 0.136443)
(-0.264231 -0.936483 -0.392774)
(0.17368 -1.03618 -0.677473)
(0.796978 -1.21733 -0.343819)
(1.19486 -1.45517 0.52509)
(1.12812 -1.67469 1.4008)
(0.71898 -1.82011 1.71853)
(0.267164 -1.92555 1.27635)
(0.0537089 -2.10259 0.157085)
(1.11052 -2.35356 -2.09277)
(0.677795 -0.961472 1.16788)
(0.429121 -1.10351 0.391018)
(0.583323 -1.5812 0.440032)
(0.527371 -2.00661 0.768305)
(0.230484 -2.2235 0.989607)
(-0.143413 -2.19368 0.904513)
(-0.371509 -1.99444 0.579062)
(-0.345381 -1.76061 0.315259)
(-0.167855 -1.61316 0.371861)
(-0.0509846 -1.56996 0.738544)
(-0.140064 -1.52952 1.13403)
(-0.381217 -1.36864 1.2075)
(-0.563226 -1.05631 0.84887)
(-0.517365 -0.693901 0.274704)
(-0.256926 -0.436863 -0.163422)
(0.0708532 -0.388632 -0.251306)
(0.317795 -0.545571 0.00371077)
(0.391446 -0.813398 0.437046)
(0.248396 -1.04656 0.801799)
(-0.0698545 -1.1051 0.832574)
(-0.357474 -0.947953 0.397279)
(-0.309357 -0.712904 -0.270569)
(0.200966 -0.674724 -0.596925)
(0.911678 -1.04228 -0.103214)
(1.34287 -1.74041 1.08716)
(1.22277 -2.41316 2.25959)
(0.715758 -2.70802 2.66193)
(0.202424 -2.5641 2.08261)
(0.00231176 -2.17667 0.772389)
(1.14573 -1.53744 -1.64396)
(-6.70512 10.2116 -5.34955)
(-3.65917 6.97161 -1.20891)
(-2.32684 5.61579 1.478)
(-1.88156 5.541 4.56303)
(-2.45957 5.27453 6.04404)
(-3.24227 4.22986 4.36394)
(-3.08979 2.75283 0.336233)
(-1.70184 1.5363 -3.30875)
(0.13959 1.12657 -4.31905)
(1.37472 1.55046 -2.49998)
(1.47217 2.33193 0.588326)
(0.688769 2.93044 2.90239)
(-0.234743 3.04345 3.33881)
(-0.728925 2.69786 2.20886)
(-0.729813 2.17429 0.456845)
(-0.360431 1.81946 -1.13769)
(0.392954 1.91242 -1.89304)
(1.38038 2.52039 -1.03149)
(1.8591 3.39412 1.46636)
(1.17825 4.09582 3.77652)
(-0.231923 4.25403 3.75178)
(-1.12963 3.88061 1.12464)
(-0.663349 3.42148 -1.95194)
(0.677678 3.33814 -2.81303)
(1.51607 3.65073 -0.981034)
(1.08886 3.87809 1.42617)
(0.0704668 3.54 2.05597)
(-0.333487 2.77543 0.867696)
(0.222645 2.25846 -0.431411)
(1.24908 2.54032 -1.05976)
(-5.75526 11.4745 -5.9103)
(-3.26315 7.44639 -1.33399)
(-2.34486 5.51108 1.21646)
(-2.00044 4.82163 3.75084)
(-2.37802 4.24387 4.9716)
(-2.90756 3.48849 3.59998)
(-2.67879 2.7586 0.266329)
(-1.45119 2.23354 -2.76148)
(0.112901 2.03247 -3.60589)
(1.13696 2.13433 -2.10711)
(1.20013 2.33846 0.440626)
(0.540116 2.48971 2.33847)
(-0.209781 2.50564 2.6744)
(-0.585036 2.36397 1.72607)
(-0.564634 2.17264 0.275036)
(-0.26711 2.12648 -1.05382)
(0.344567 2.37282 -1.71295)
(1.18266 2.83468 -1.03455)
(1.61558 3.25215 1.04452)
(1.06038 3.53668 2.98702)
(-0.13159 3.71477 2.97144)
(-0.899889 3.84463 0.759711)
(-0.507093 3.97373 -1.83855)
(0.634569 4.06495 -2.56578)
(1.34652 4.04164 -1.01257)
(0.980677 3.80462 1.03227)
(0.119446 3.3111 1.58612)
(-0.217739 2.72397 0.604033)
(0.241595 2.42081 -0.50184)
(1.0921 2.78878 -1.15179)
(-4.62259 12.163 -4.27404)
(-2.90394 7.53826 -0.280396)
(-2.44729 5.22925 1.71844)
(-2.2003 4.15166 3.50427)
(-2.32648 3.38031 4.31685)
(-2.53113 2.84462 3.19845)
(-2.19208 2.65013 0.60404)
(-1.15323 2.62302 -1.74342)
(0.0719034 2.58247 -2.41058)
(0.834282 2.46848 -1.28371)
(0.853543 2.27269 0.633902)
(0.348252 2.11163 2.0448)
(-0.18437 2.05964 2.2624)
(-0.410438 2.06548 1.51449)
(-0.356616 2.11623 0.402813)
(-0.134212 2.29066 -0.60447)
(0.312725 2.63484 -1.09824)
(0.960846 2.97751 -0.562531)
(1.32515 3.06896 1.06202)
(0.925148 3.0626 2.58876)