/*--------------------------------*- C++ -*----------------------------------*\
| =========                 |                                                 |
| \\      /  F ield         | OpenFOAM: The Open Source CFD Toolbox           |
|  \\    /   O peration     | Version:  2106                                  |
|   \\  /    A nd           | Website:  www.openfoam.com                      |
|    \\/     M anipulation  |                                                 |
\*---------------------------------------------------------------------------*/
FoamFile
{
    version     2.0;
    format      ascii;
    arch        "LSB;label=32;scalar=64";
    class       volSymmTensorField;
    location    "1258";
    object      epsilon;
}
// * * * * * * * * * * * * * * * * * * * * * * * * * * * * * * * * * * * * * //

dimensions      [0 0 0 0 0 0 0];

internalField   nonuniform List<symmTensor> 
9000
(
(6425.07 300.621 -10005.4 10591.6 13014.5 -30523.1)
(2279.5 88.707 -9986.76 1275.54 9350.91 -3428.49)
(619.956 -131.8 -6040.9 -4840.56 7554.71 13100)
(-476.057 -150.584 -4968.9 -12252.1 6996.71 32970.1)
(-1220.68 -74.7515 -8465.38 -15714.3 6412.65 42352.8)
(-692.759 20.4492 -12854.5 -11487 5235.25 30852.1)
(822.25 68.8679 -12966.2 -1562.17 3769.47 3907.46)
(2057.32 43.7812 -7334.41 7486.42 2598.09 -20438.5)
(2059.82 -26.7395 636.619 10180.1 2168.73 -27284.8)
(943.032 -91.0959 6156.44 5938.92 2482.56 -15318.4)
(-421.932 -108.503 6694.15 -1544.47 3102.12 5112.32)
(-1161.93 -73.7657 3238.95 -7298.11 3565.76 20465.7)
(-1025.84 -15.4721 -990.991 -8523.82 3618.67 23395.8)
(-413.474 33.6976 -3409.01 -5833.95 3285.61 15894.7)
(222.065 57.6711 -3576.99 -1495.89 2819.24 4223.66)
(785.993 53.7384 -1950.23 2448.32 2552.35 -6336.16)
(1189.92 23.0314 1451.93 4214.13 2742.25 -11171.8)
(950.736 -17.4938 5804.97 2004.73 3405.78 -5223.06)
(-185.692 -32.8843 7808.39 -4057.19 4272.25 11445.6)
(-1423.95 3.04451 4689.47 -9549.38 4958.74 26775.8)
(-1541.03 69.6037 -1592.2 -9433.69 5194.67 26688.5)
(-281.616 106.346 -5549.81 -3147.92 5008.64 9476.85)
(1207.22 73.9809 -3452.09 4202.68 4745.48 -10688.9)
(1466.13 -7.97842 2533.31 6335.73 4735.49 -16330.8)
(308.223 -82.8658 6330.65 2094.61 4956.05 -4341.16)
(-942.108 -110.085 4517.65 -3598.39 4992.88 11350.2)
(-990.407 -93.4546 -23.0643 -5203.12 4472.35 15288.3)
(-21.9004 -61.033 -1990.55 -2525.28 3578.23 7245.94)
(891.144 -49.6509 20.4871 448.832 2995.34 -1381.83)
(1490.78 -88.6019 1867.61 1925.69 3313.22 -5705.84)
(8559.27 280.59 -8301.93 8814.68 36008.4 -38599.1)
(1910.06 -529.559 -8438.11 2030.77 23714.7 -7852.3)
(388.604 -951.076 -6169.63 -2386.38 17082.7 8377.53)
(-404.868 -858.989 -5520.03 -7154.41 13244.8 24748)
(-954.679 -187.127 -8057.49 -9458.73 10606.5 32586.9)
(-498.246 614.337 -11254.1 -6879.94 9083.69 23635.3)
(772.333 947.448 -11011.6 -623.253 8792.23 1993.03)
(1795.86 591.656 -6141.5 5134.19 8950.84 -17675.4)
(1766.54 -134.624 516.699 6882.79 8818.48 -23205.7)
(794.07 -720.702 5039.62 4215.21 8196.98 -13534)
(-370.559 -829.908 5417.15 -554.488 7223.8 2965.98)
(-984.841 -482.019 2544.68 -4248.33 6433.41 15289.5)
(-849.877 17.5569 -866.771 -5055.54 6150.13 17505.8)
(-328.395 375.369 -2725.06 -3348.77 6227.3 11371.7)
(191.188 493.442 -2796.57 -557.197 6533.45 1943.9)
(655.87 384.724 -1516.33 2002.23 7204.96 -6685.91)
(1014.2 57.3667 1210.3 3174.15 8284.09 -10925.9)
(834.611 -372.992 4858.52 1811 9207.8 -6476.04)
(-136.55 -554.403 6650.37 -2012.8 9314.34 6998.78)
(-1218.16 -206.845 4126.71 -5462.67 9167.55 19555.5)
(-1333.77 455.911 -1125.88 -5330.11 9796.77 19447.2)
(-247.375 852.809 -4472.76 -1269.44 11460.6 5155.63)
(1046.92 593.635 -2717.53 3462.85 13298.8 -11627.9)
(1274.33 -108.797 2336.62 4854.65 14004.2 -16339.2)
(270.102 -640.355 5551.5 2149.48 13122.7 -6334.01)
(-812.711 -615.18 4045.45 -1540.15 11281.9 6857.71)
(-856.473 -232.544 258.725 -2689.03 9424.78 10446)
(-31.7268 48.9596 -1395.23 -1122.93 8083.74 4119.35)
(764.092 48.7261 177.973 699.238 7628.57 -2988.44)
(1887.8 -140.46 1616.19 1686.06 8852.49 -7478.58)
(6734.04 361.387 -6563.21 5119.49 45818.7 -28769.9)
(1313.73 -1141.37 -7501.69 729.704 28691.1 -1727.63)
(132.854 -1519.47 -6775.47 -1897.37 19562.2 11166.5)
(-306.668 -1301.1 -6431 -4443.91 13940.8 22798)
(-636.566 -266.643 -7894.79 -5679.18 10262 28067.1)
(-258.269 975.596 -9735.63 -4203.8 9049.98 20802.8)
(730.364 1494.65 -9025.61 -647.878 10195.7 3967.49)
(1504.33 936.478 -4924.52 2652.63 11781.8 -11281.7)
(1431.41 -199.283 339.755 3704.85 12081.1 -15647.4)
(620.7 -1113.42 3783.65 2250 10743.5 -8370.35)
(-312.229 -1280.96 3979.79 -420.271 8465.88 4058.12)
(-778.285 -734.782 1746.14 -2501.22 6648.78 13227.9)
(-642.13 42.0377 -766.974 -2950.39 6122.5 14670)
(-222.234 592.008 -2005.4 -1962.2 6628.96 9833.07)
(167.828 771.081 -1933.08 -341.986 7677.58 2610.82)
(518.093 603.669 -957.448 1133.67 9104.94 -3938.97)
(815.925 95.628 1092.19 1784.87 10676.2 -7137.87)
(696.142 -586.144 3958.21 983.738 11452.5 -3650.38)
(-83.9551 -882.01 5468.02 -1188.86 10663.9 6874.22)
(-977.581 -337.451 3585.95 -3120.5 9671.9 16748.5)
(-1089.18 709.474 -504.633 -3023.54 10462.6 16865.2)
(-210.455 1339.5 -3156.43 -725.904 13418.5 6002.97)
(845.988 931.39 -1813.53 1935.68 16741 -6821.42)
(1026.81 -179.469 2116.1 2711.31 17917.7 -10340.8)
(197.443 -1015.95 4563.12 1176.61 16220.3 -2544.8)
(-684.172 -966.042 3278.3 -917.022 13131.4 7545.42)
(-702.338 -350.695 263.585 -1570.51 10624 9986.59)
(-21.3567 100.324 -984.028 -681.788 9384.8 4650.42)
(601.71 113.66 286.534 343.914 9275.83 -1203.02)
(1358.45 -219.23 1279.41 921.816 11040.5 -4971.05)
(3525.79 403.447 -4728.14 -476.887 47857.8 -11817)
(565.64 -1522.17 -6861.16 -2112.06 28736.6 8039.5)
(-111.385 -1777.08 -7550.01 -2860.24 18733.9 16393.1)
(-185.242 -1470 -7448.61 -3640.17 12471.4 23119.4)
(-285.109 -271.403 -7802.25 -3952.66 8475.12 25591.5)
(10.8044 1178.12 -8215.88 -3103.88 7674.79 19636.8)
(691.342 1784.56 -6989.93 -1359.04 9819.97 7236.15)
(1189.18 1120.96 -3674.65 253.288 12361.5 -3851.74)
(1065.66 -224.077 140.694 828.822 13005 -7134.21)
(430.658 -1305.45 2455.32 232.869 11302.8 -2176.86)
(-247.673 -1502.1 2458.87 -934.871 8298.61 6291.87)
(-550.416 -854.275 898.112 -1846.45 5907.17 12381)
(-413.188 62.7367 -671.187 -2015.58 5261.28 13051)
(-103.19 707.584 -1258.99 -1511.05 6061.87 9434.58)
(148.745 913.97 -1022.61 -713.857 7594.56 4329.24)
(374.843 713.234 -336.367 -36.3003 9458.11 -154.635)
(600.559 110.958 1028.08 170.829 11207.6 -2188.44)
(539.335 -700.72 3063.27 -323.92 11740.9 565.768)
(-30.002 -1055.36 4250.44 -1381.9 10342.9 8341.09)
(-710.657 -408.752 3038.66 -2271.84 8825.09 15674.5)
(-815.523 835.23 187.482 -2245.86 9661.39 16100.8)
(-170.868 1583.45 -1720.1 -1267.54 13268.3 8717.27)
(614.414 1096.33 -827.743 -154.223 17332.2 -93.5206)
(738.037 -226.675 1870.78 132.847 18719.4 -2362.95)
(101.91 -1219.27 3452.4 -562.86 16579.7 3240.48)
(-551.819 -1151.07 2353.01 -1441.25 12880.4 10129.4)
(-530.317 -409.215 130.989 -1591.81 10178.4 11162.2)
(3.79124 130.773 -658.028 -1018.39 9191.19 6492.38)
(408.745 145.448 366.648 -482.411 9370.76 1765.59)
(527.166 -274.859 874.648 -277.551 11330.9 -894.861)
(-63.4458 402.894 -2882.09 -5872.17 44978.6 6300.4)
(-225.332 -1587.92 -6312.66 -4856.37 26120.5 17945.9)
(-331.011 -1729.81 -8259.49 -3969.28 16453.7 21674.6)
(-57.1357 -1394.25 -8365.39 -3457.79 10412.8 23974.9)
(64.9373 -207.293 -7680.68 -3082.07 6607.08 23893.1)
(280.126 1238.14 -6736.67 -2616.91 6091.6 19031.9)
(651.832 1839.65 -5017.35 -2097.04 8588.38 10556.4)
(871.083 1156.69 -2464.52 -1650.05 11451.8 3188.25)
(696.49 -216.517 -52.3873 -1414.86 12269.2 883.772)
(239.218 -1318.46 1167.93 -1422.81 10554.5 3761.62)
(-181.33 -1516.69 985.28 -1536.69 7441.33 8655.39)
(-319.304 -854.765 79.4734 -1614.8 4963.35 11952.5)
(-182.176 78.6014 -574.987 -1568.49 4325.61 11911.5)
(16.8703 730.76 -535.36 -1389.2 5244.75 9387.2)
(131.371 933.113 -139.765 -1171.6 6941.82 6199.39)
(233.251 719.836 272.843 -1071.53 8902.16 3605.25)
(383.46 100.434 979.57 -1201.7 10588.6 2662.16)
(377.9 -727.563 2203.93 -1510.5 10921.6 4799.41)
(22.5489 -1085.99 3067.84 -1813.71 9320.33 10131.2)
(-439.055 -423.549 2505.3 -1996.07 7675.23 15204.3)
(-536.064 844.169 863.34 -2039.96 8495.26 15947.9)
(-131.65 1602.7 -318.47 -2004.58 12162.1 11745.6)
(374.074 1100.13 128.017 -1997.57 16273 6598.7)
(437.478 -252.51 1611.67 -2076.61 17633.2 5486.44)
(-1.01696 -1261.09 2331.86 -2194.56 15405.1 9105.44)
(-419.881 -1177.86 1398.67 -2194.09 11658.5 13046.4)
(-353.653 -406.529 -57.0219 -1925.06 9079.22 12713.2)
(33.8089 144.222 -388.557 -1487.97 8337.18 8544.71)
(202.222 139.354 411.858 -1251.45 8656.84 4810.1)
(-372.326 -301.544 436.823 -1357.62 10525.5 3287.27)
(-3406.87 385.876 -1133.46 -10027 38710.3 22243.1)
(-966.129 -1373.94 -5723.31 -6826.89 21919.7 26235.9)
(-521.652 -1445.88 -8741.31 -4707.39 13483.9 25944.5)
(59.6871 -1140.41 -9033.23 -3362.3 8234.31 24647.1)
(379.297 -95.7234 -7472.33 -2554.33 4935.29 22502)
(521.28 1186.17 -5363.56 -2330.95 4567.16 18562.3)
(609.65 1711.42 -3232.3 -2593.96 6905.26 13355.1)
(572.702 1073.89 -1374.92 -2906.09 9592.07 9097.51)
(352.737 -188.698 -221.302 -2909.57 10432.4 7623.22)
(62.2081 -1197.25 21.852 -2553.79 8954.01 8768.86)
(-118.084 -1374.18 -323.55 -1987.42 6191.93 10666.3)
(-103.664 -764.378 -640.915 -1516.2 3997.31 11616.5)
(31.698 90.4084 -478.98 -1316.05 3470.87 10971)
(126.627 682.016 115.308 -1342.1 4374.8 9366.63)
(113.951 855.684 645.294 -1509.21 5984.11 7804.07)
(101.421 646.215 807.284 -1797.01 7780.82 6807.27)
(181.378 69.9996 923.378 -2150.18 9241.11 6769.46)
(226.957 -685.965 1422.49 -2337.29 9436.26 8372.5)
(71.1233 -1005.22 1997.63 -2160.62 7947.25 11667.6)
(-185.771 -393.097 2015.7 -1897.06 6474.67 14872.7)
(-275.782 764.912 1453.39 -1994.05 7239.24 15904)
(-96.5871 1450.15 916.232 -2569.19 10544.3 14371.4)
(147.426 979.975 958.277 -3278.55 14205.4 12286.3)
(155.166 -262.171 1351.05 -3605.53 15364.4 12142.4)
(-96.9787 -1177.47 1300.01 -3362.75 13295.1 14102.3)
(-295.082 -1079.71 520.093 -2786.3 9901.53 15562.9)
(-187.41 -352.198 -244.909 -2215.69 7663.35 14071.2)
(59.2014 147.97 -166.838 -1822.27 7152.25 10308.3)
(-2.14526 105.056 413.188 -1747.98 7499.47 7395.71)
(-1204.6 -307.127 -2.45263 -2058.03 9078.17 6815.39)
(-6113.9 369.647 425.763 -12547.4 30317.9 34211.9)
(-1592.81 -967.093 -5027.98 -7824.78 16901.8 32113.8)
(-681.703 -1017.88 -8911.34 -4934.26 10280.9 28796.6)
(152.497 -786.378 -9372.99 -3156.53 6122.49 24863.3)
(633.911 38.641 -7149.25 -2146 3477.27 21234.9)
(713.953 1061.02 -4143.92 -2071.23 3160.32 18060.9)
(563.363 1465.47 -1719.25 -2773.27 5037.62 15405.1)
(310.827 912.302 -462.739 -3521.02 7246.48 13573.6)
(55.8419 -153.309 -359.111 -3680.86 8003.63 12753.3)
(-88.4818 -995.698 -921.777 -3142.71 6891.7 12550.3)
(-61.3519 -1135.05 -1394.01 -2205.95 4745.77 12112.5)
(82.8773 -617.327 -1219.73 -1425.3 3054.39 11232.1)
(214.444 99.6767 -384.286 -1129.91 2707.77 10114.7)
(217.909 587.288 659.626 -1268.89 3519.47 9241.02)
(95.4126 716.252 1286.41 -1660.68 4885.14 8966.58)
(-14.3948 521.871 1226.78 -2174.23 6358.52 9218.83)
(6.98102 28.3087 846.66 -2645.81 7503.85 9854.36)
(97.9611 -600.013 748.895 -2751.38 7611.77 10997)
(113.982 -853.637 1092.24 -2308.99 6418.01 12702.8)
(32.2053 -332.985 1592 -1805.29 5287.51 14476)
(-53.276 632.528 1916.27 -1933.14 5973.46 15748.7)
(-68.7183 1192.31 1902.24 -2838.12 8679.98 16286.3)
(-49.1441 783.292 1603.76 -3935.14 11612.7 16557.9)
(-86.7733 -261.778 1097.8 -4403.87 12466.7 17148.7)
(-175.395 -1014.23 421.623 -3974.68 10687.9 17816.6)
(-182.449 -899.605 -213.069 -3080.81 7875.46 17356.4)
(-42.7961 -259.347 -393.418 -2328.79 6110.51 14991.1)
(73.0418 152.079 16.3393 -1932.87 5836.69 11582.1)
(-194.613 58.6983 368.894 -1916.35 6162.75 9307.54)
(-1898.35 -300.153 -422.212 -2305.22 7358.74 9360.37)
(-7979.51 357.599 1727.8 -13413.1 21004.8 41460.4)
(-2069.33 -465.252 -4221.02 -7902.28 11721.2 35388)
(-810.439 -535.204 -8756.58 -4693.3 7195.09 30201.1)
(215.548 -402.291 -9368.98 -2801.46 4211.42 24577.2)
(817.414 174.074 -6707.49 -1764.03 2237.42 20026.9)
(847.966 899.19 -3098.93 -1772.21 1915.65 17478.7)
(512.088 1163.5 -514.171 -2656.27 3206.34 16685.8)
(94.0857 710.164 244.955 -3592.98 4804.69 16610.4)
(-182.834 -120.917 -468.79 -3842.72 5415.49 16259.6)
(-206.283 -763.503 -1643.41 -3258.24 4703.79 15070.5)
(-12.595 -855.907 -2199.67 -2192.71 3271.95 12944.5)
(233.402 -446.029 -1640.86 -1293.47 2172.86 10745.4)
(358.801 107.505 -291.636 -954.905 2040.51 9295.74)
(286.43 471.03 1083.77 -1138.89 2729.68 8971.61)
(75.2711 547.801 1764.28 -1629.45 3780.77 9649.17)
(-110.692 374.98 1514.97 -2238.25 4860.07 10799)
(-132.817 -16.351 745.052 -2743.81 5662.81 11874.9)
(-2.84991 -492.254 196.111 -2796.19 5719.05 12627.5)
(150.373 -669.32 373.853 -2246.85 4892.88 13172.9)
(206.011 -257.984 1245.29 -1655.55 4166.67 13933.7)
(121.619 479.571 2238.71 -1792.36 4765.73 15396.4)
(-49.8163 891.217 2610.29 -2808.54 6790.85 17415.6)
(-207.125 554.725 2042.94 -4037.88 8896.75 19350.8)
(-276.448 -256.492 856.754 -4561.22 9403.1 20438.2)
(-230.11 -814.143 -274.218 -4074.93 7954.28 20165.2)
(-84.0095 -678.323 -766 -3066.48 5807.6 18341.2)
(74.5138 -141.446 -476.407 -2237.75 4574.48 15406.6)
(71.468 165.494 174.793 -1821.5 4556.05 12337.3)
(-371.622 16.5408 285.445 -1787.28 4867.68 10534.3)
(-2432.38 -286.526 -812.522 -2139.28 5692.9 10891.3)
(-8947.96 344.901 2730.52 -12823.4 11842.5 44006.2)
(-2382.48 43.8415 -3337.61 -7240.29 6898.81 36258.9)
(-907.628 -69.2195 -8315.27 -4110.86 4476.38 30349)
(249.094 -40.5083 -9052.62 -2331.9 2599.3 23869.5)
(929.469 294.944 -6160.57 -1380.64 1231.62 18878.4)
(922.096 729.302 -2227.83 -1424.41 879.721 16834.9)
(455.409 853.912 386.791 -2313.06 1581.86 17304.6)
(-76.2716 498.148 746.113 -3265.08 2558.19 18390.8)
(-361.117 -98.759 -560.351 -3553.4 2993.64 18333)
(-289.547 -539.206 -2156.69 -3014.12 2650.39 16464.2)
(28.4209 -581.458 -2752.48 -1990.66 1908.76 13217.4)
(347.027 -276.595 -1910.63 -1111.42 1393.66 10154.9)
(463.603 114.208 -201.653 -771.84 1481.22 8504)
(331.426 352.525 1390.01 -955.238 2049.65 8572.39)
(53.5291 376.804 2081.82 -1453.06 2778.66 9899.53)
(-186.555 228.034 1674.78 -2060.91 3460.34 11629)
(-236.397 -57.5834 620.456 -2540.2 3936.56 12939.6)
(-74.0062 -380.343 -237.147 -2560.39 3963.74 13368.3)
(180.415 -481.801 -159.956 -2011.89 3501.68 13126.2)
(334.125 -179.453 977.484 -1435.6 3168.37 13238.2)
(247.005 331.395 2429.59 -1563.17 3685.18 14843.3)
(-40.4334 595.136 3052.78 -2537.19 5055.52 17828.5)
(-325.014 329.321 2284.45 -3720.04 6363.85 20819.5)
(-411.149 -249.745 629.599 -4233.21 6525.7 22187.2)
(-258.908 -610.412 -787.059 -3775.04 5384.33 21272.6)
(0.959452 -448.326 -1131.79 -2795.1 3885.31 18579.4)
(163.855 -10.4875 -478.457 -1970.84 3185.49 15362.3)
(53.3796 193.975 325.724 -1534.62 3440.52 12650.2)
(-534.42 -8.51594 175.474 -1437.02 3782.39 11195.3)
(-2823.69 -269.461 -1172.06 -1667.95 4334.84 11584.9)
(-9077.73 324.666 3418.87 -11098.9 3689.35 42404.4)
(-2536.56 492.462 -2431.42 -6071.44 2793.67 35158.6)
(-973.631 331.948 -7653.33 -3337.43 2264.82 29542.9)
(257.327 266.919 -8482.56 -1812.12 1336.12 22887.1)
(977.357 392.509 -5532.18 -1003.42 471.292 17830.8)
(941.511 570.616 -1515.55 -1048.91 86.3992 16192.2)
(393.318 569.049 1013.59 -1833.12 273.399 17439.7)
(-204.309 297.495 1055.68 -2691.06 691.809 19198.6)
(-483.605 -90.5936 -647.636 -2980.64 947.711 19276.2)
(-340.358 -348.005 -2496.88 -2538.42 904.027 16962.6)
(63.0786 -341.736 -3089.91 -1661.62 752.442 13048)
(427.253 -127.127 -2050.66 -890.82 749.995 9491.97)
(532.201 119.423 -115.312 -580.851 1041.64 7752.32)
(354.799 244.723 1591.29 -737.049 1509.9 8087.5)
(30.5539 221.499 2257.06 -1182.78 1951.01 9813.55)
(-243.039 96.3479 1722.05 -1726.63 2275.92 11858.7)
(-306.062 -91.3552 478.551 -2142.59 2468.31 13239.1)
(-117.509 -276.101 -561.665 -2145.85 2478.96 13404.4)
(204.866 -310.411 -527.587 -1662.58 2333.16 12674.4)
(420.35 -104.742 784.52 -1161.24 2338.68 12428.2)
(326.739 204.66 2512.07 -1267.08 2787.36 14137.5)
(-40.1928 335.757 3268.97 -2105.86 3596.38 17676.8)
(-406.331 130.437 2356.46 -3133.36 4213.97 21235.9)
(-494.844 -243.157 416.217 -3593.35 4064.52 22704.1)
(-262.513 -424.748 -1135.2 -3209.74 3173.78 21379.9)
(75.0713 -231.825 -1322.25 -2345.46 2241.59 18218.3)
(228.152 123.919 -392.217 -1581.6 2036.9 14967.7)
(19.8151 239.597 487.395 -1137.02 2575.77 12655.2)
(-687.163 -8.61557 55.327 -960.8 3010.99 11483.7)
(-3114.62 -250.195 -1504.62 -1033.47 3442.05 11745.7)
(-8507.22 291.673 3805.43 -8612.43 -2850.76 37552.1)
(-2548.72 835.808 -1555.53 -4630.33 -395.915 32626.7)
(-1009.66 642.384 -6843.61 -2513.38 600.678 28117.8)
(246.241 505.872 -7727.34 -1311.15 421.506 21798.7)
(972.419 464.061 -4849.85 -658.348 -49.2667 16948.7)
(915.011 433.927 -939.851 -682.426 -454.136 15636.9)
(326.134 326.626 1409.28 -1306.91 -671.589 17296.5)
(-297.126 120.662 1197.78 -2012.76 -707.95 19351.7)
(-558.934 -97.0792 -745.496 -2278.01 -619.248 19430.3)
(-363.144 -202.598 -2709.91 -1952.27 -446.972 16834.1)
(93.3127 -152.832 -3262.62 -1270.81 -145.598 12581.1)
(480.136 -7.92208 -2090.91 -653.521 260.316 8806.98)
(570.68 122.389 -34.2471 -392.25 726.374 7066.9)
(360.129 154.631 1706.02 -509.56 1123.47 7575.19)
(6.95234 92.2126 2316.05 -871.372 1333.61 9507.29)
(-282.444 -11.5696 1679.33 -1316.82 1367.09 11665.4)
(-346.479 -115.765 326.63 -1651.58 1330.76 12994.8)
(-137.379 -185.999 -793.092 -1648.11 1330.06 12949.6)
(224.866 -165.296 -755.287 -1260.77 1432.38 11957.3)
(471.572 -37.7774 659.433 -861.849 1703.92 11569.2)
(368.029 107.838 2516.19 -940.013 2104.09 13356.5)
(-48.1225 129.459 3311.08 -1600.5 2476.77 17148.4)
(-457.44 -29.403 2296.84 -2420.95 2547.17 20915.6)
(-535.416 -236.781 215.948 -2803.27 2136.38 22345.6)
(-243.525 -268.233 -1346.3 -2510.08 1427.28 20775.9)
(141.861 -41.3786 -1359.32 -1801.66 951.634 17445.5)
(272.363 254.764 -215.828 -1130.87 1180.38 14363.5)
(-26.7389 301.099 677.216 -695.865 2002.1 12509.6)
(-835.006 18.3898 -56.896 -455.276 2592.91 11620)
(-3359.86 -228.871 -1815.46 -387.419 3065.49 11734.2)
(-7423 243.525 3927.99 -5740.6 -7435.59 30521.1)
(-2444.82 1050.57 -749.838 -3124.5 -2611.08 29220.1)
(-1017.96 853.983 -5951.61 -1751.65 -553.403 26389.1)
(221.956 675.565 -6852.55 -889.27 -187.806 20764.9)
(927.147 511.226 -4140.18 -378.684 -358.323 16304)
(852.708 323.477 -476.772 -367.373 -759.714 15262)
(254.418 133.049 1620.17 -815.495 -1260.57 17075.8)
(-362.909 -26.7455 1199.69 -1348.45 -1635.65 19154.2)
(-597.4 -116.381 -867.631 -1572.32 -1691.59 19123.6)
(-363.454 -105.556 -2843.53 -1358.08 -1385.54 16342.1)
(121.108 -19.411 -3324.47 -877.305 -774.676 11964.4)
(512.678 77.2666 -2063.92 -424.383 -73.9685 8157.53)
(586.282 122.207 39.1468 -220.707 529.96 6479.63)
(351.793 84.4493 1753.92 -298.368 885.925 7096.19)
(-16.532 -7.23217 2287.28 -566.06 930.006 9097)
(-307.637 -92.674 1570.96 -901.133 746.169 11224.5)
(-363.321 -130.454 172.097 -1150.73 538.489 12422.5)
(-138.446 -112.288 -948.31 -1146.2 526.948 12211.3)
(241.673 -49.6614 -871.018 -861.884 805.305 11116.8)
(495.833 19.8442 594.422 -570.844 1267.61 10736.8)
(379.389 42.7039 2472.96 -622.124 1640.25 12589.4)
(-62.9214 -19.4788 3233.6 -1099.17 1706.76 16434.3)
(-485.677 -146.191 2145.58 -1703.19 1380.57 20166.7)
(-542.293 -229.497 28.6092 -1997.48 765.112 21459.8)
(-205.503 -143.508 -1450 -1788.79 172.007 19749.2)
(204.959 118.274 -1268.45 -1240.76 37.9124 16455.8)
(302.156 377.378 49.2389 -676.286 628.566 13696.3)
(-82.9805 374.514 910.627 -271.836 1719.85 12369)
(-982.461 68.9291 -142.674 -7.6969 2509.56 11817.2)
(-3614.4 -205.489 -2108.18 128.276 3153.12 11903.2)
(-6031.71 180.277 3843.63 -2829.8 -9967.7 22420)
(-2255.5 1131.32 -35.9641 -1720.68 -3902.62 25452.7)
(-1001.72 971.02 -5028.01 -1132.03 -1287.55 24622.1)
(189.679 783.458 -5913.37 -591.854 -566.542 19918.5)
(853.199 538.025 -3426.01 -197.496 -507.017 15962.9)
(764.401 239.007 -104.045 -145.041 -876.002 15152.7)
(178.919 -12.8631 1689.48 -425.419 -1545.89 16951.9)
(-409.528 -143.709 1087.9 -788.825 -2147.35 18867.5)
(-609.206 -144.79 -1025.09 -959.518 -2319.17 18639.4)
(-347.026 -52.0632 -2941.02 -834.477 -1949.07 15716.9)
(148.128 62.2418 -3325.47 -529.032 -1157.15 11330.9)
(531.62 129.575 -2000.76 -226.699 -267.555 7599.26)
(586.197 118.006 101.773 -81.4412 436.5 6021.87)
(334.275 32.892 1753.16 -126.216 777.409 6705.37)
(-39.0804 -77.7509 2197.63 -305.302 717.659 8685.72)
(-321.519 -147.728 1419.93 -533.928 388.41 10690.2)
(-362.268 -135.942 21.6421 -703.165 62.6757 11710.2)
(-125.514 -54.2934 -1043.01 -699.181 38.6397 11369.5)
(256.43 37.8013 -900.56 -510.127 426.822 10279.4)
(500.933 67.7302 581.967 -319.583 1011.6 10004.6)
(369.192 6.09868 2410.35 -351.235 1375.01 11921.8)
(-83.1153 -115.232 3086.25 -666.107 1252.87 15705.1)
(-497.98 -221.777 1939.87 -1072.83 668.272 19257.7)
(-524.712 -219.354 -144.774 -1278.31 -95.2274 20350.7)
(-152.299 -47.2581 -1472.95 -1134.08 -625.151 18558.2)
(267.483 248.034 -1074.03 -726.511 -520.612 15429.2)
(322.943 488.898 399.761 -266.842 361.26 13102)
(-145.329 453.773 1200.62 84.6968 1697.07 12370.7)
(-1132.22 134.194 -183.991 310.058 2694.63 12255.9)
(-3923.08 -180.696 -2382.49 395.455 3563.15 12545.5)
(-4536.21 103.63 3620.2 -173.225 -10562.2 14284.6)
(-2012.67 1086.23 582.059 -541.151 -4400.65 21758.2)
(-964.819 1005.08 -4106.76 -702.655 -1722.12 23016.6)
(153.249 840.733 -4951.76 -447.971 -809.336 19353.6)
(760.326 549.168 -2725.14 -142.93 -566.708 15973.6)
(658.643 177.485 197.129 -50.9433 -873.497 15373.9)
(100.538 -116.647 1654.03 -187 -1614.21 17058.6)
(-443.656 -231.749 886.135 -397.868 -2342.47 18693.8)
(-603.307 -177.214 -1225.28 -505.865 -2596.89 18199.5)
(-319.168 -32.4145 -3037.18 -435.931 -2212.48 15140.5)
(175.459 101.346 -3307.29 -260.923 -1339.65 10788.7)
(542.628 153.404 -1928.28 -79.4514 -348.542 7179.22)
(576.746 108.986 149.936 12.2063 420.738 5719.63)
(311.706 -3.62462 1718.5 -11.3323 765.581 6446.04)
(-59.8127 -123.331 2070 -117.78 654.531 8355.03)
(-326.629 -179.76 1245.95 -253.906 242.651 10185.6)
(-348.376 -133.038 -119.005 -351.979 -155.002 11006.9)
(-102.89 -9.52845 -1090.33 -346.607 -193.065 10565.8)
(269.964 100.838 -865.574 -236.779 249.827 9546.19)
(493.53 105.761 615.089 -133.661 899.667 9434.21)
(344.793 -8.50596 2350.65 -158.805 1265.75 11425.1)
(-107.105 -167.232 2909.89 -349.699 1048.69 15097.2)
(-499.995 -261.514 1711.4 -595.43 320.015 18400.6)
(-490.605 -203.801 -301.463 -716.993 -538.865 19259.9)
(-87.6232 27.5933 -1435.83 -608.813 -1040.41 17413.2)
(331.622 352.415 -796.624 -306.819 -777.984 14517.2)
(339.22 587.565 831.738 59.2027 332.753 12694.9)
(-210.356 531.129 1557.47 334.541 1877 12624.6)
(-1284.45 201.088 -164.157 444.297 3045.25 13068.2)
(-4312.53 -156.087 -2632.95 329.905 4084.61 13852.3)
(-3116.64 16.3286 3326.93 2003.5 -9504.39 6993.72)
(-1746.37 932.91 1113.24 334.523 -4287.17 18469.9)
(-911.442 971.082 -3206.98 -485.025 -1990.07 21703.5)
(115.133 858.99 -3996.69 -471.352 -1020.74 19120.2)
(656.013 548.805 -2050.35 -235.017 -624.557 16357.6)
(542.361 134.382 441.414 -111.464 -842.693 15960.1)
(20.3461 -185.811 1543.18 -133.997 -1576.54 17480.4)
(-470.311 -293.376 614.776 -215.469 -2348.43 18768.7)
(-586.803 -207.526 -1471.25 -251.5 -2647.66 17956.7)
(-284.408 -34.0718 -3156.38 -195.146 -2273.42 14740.2)
(203.457 110.269 -3300.98 -95.0587 -1384.6 10415.1)
(549.805 155.037 -1867.8 4.15611 -354.861 6931.4)
(562.887 94.3747 179.409 50.2912 449.993 5589.9)
(287.597 -30.0528 1660.41 33.3782 808.807 6346.03)
(-77.7581 -149.674 1922.06 -22.5597 685.125 8160.27)
(-324.886 -192.845 1064.85 -85.3896 240.688 9796.41)
(-325.754 -122.401 -244.912 -122.678 -190.634 10417.7)
(-74.2098 25.4791 -1100.26 -111.01 -242.083 9900.16)
(282.622 144.091 -783.125 -60.6253 213.762 8988.38)
(478.656 133.444 686.977 -30.9758 882.345 9068.97)
(312.106 -9.77636 2308.95 -67.6423 1253.13 11148.4)
(-133.126 -187.744 2734.65 -182.389 1004.84 14704.2)
(-495.555 -272.455 1485.3 -312.226 217.002 17742.3)
(-445.998 -179.807 -436.613 -357.305 -690.319 18358.7)
(-14.8341 90.2333 -1351.87 -252.486 -1177.96 16468.5)
(398.363 437.873 -451.611 -13.5146 -810.867 13834.9)
(354.125 671.944 1340.68 274.608 478.799 12562.3)
(-275.112 597.392 1988.26 449.193 2184.35 13207.2)
(-1436.34 253.575 -68.8109 360.688 3433.21 14326.4)
(-4785.38 -133.952 -2848.48 -111.722 4462.93 15884.8)
(-1916.57 -78.3032 3026.33 3549.97 -7201.11 1212.54)
(-1482.52 694.793 1573.56 865.733 -3772.68 15811.6)
(-845.668 884.462 -2336.88 -479.299 -2224.15 20745)
(76.6757 848.235 -3066.38 -661.899 -1307.09 19222.3)
(545.594 539.807 -1410.16 -483.134 -777.856 17101.3)
(420.845 104.496 639.322 -341.117 -887.872 16907)
(-60.3678 -228.297 1378.93 -283.471 -1558.88 18246)
(-492.672 -331.082 291.273 -260.042 -2307.92 19157.5)
(-564.702 -228.83 -1760.97 -214.231 -2608.7 17993.2)
(-246.359 -43.1614 -3311.71 -126.453 -2240.76 14587.8)
(231.671 102.778 -3326.02 -41.7026 -1362.9 10255.1)
(555.449 141.577 -1834.51 17.3261 -330.384 6874.11)
(547.972 73.3417 185.403 27.2409 486.622 5638.03)
(264.729 -52.0385 1584.54 0.806929 859.424 6415)
(-91.7938 -163.196 1765.83 -29.5417 745.876 8127.87)
(-317.429 -191.232 888.535 -39.9711 305.062 9569.9)
(-297.45 -104.284 -351.516 -25.9743 -128.762 10003.7)
(-42.4609 54.6503 -1079.33 -0.847778 -189.026 9431.31)
(294.12 172.138 -666.047 10.6359 251.778 8646.5)
(459.519 149.574 790.231 -20.8996 902.03 8930.32)
(275.49 -7.60175 2292.27 -90.6084 1266.84 11112.9)
(-159.159 -190.205 2579.3 -181.218 1018.03 14571.5)
(-486.418 -262.127 1280.07 -243.172 224.73 17361.9)
(-394.747 -143.916 -542.896 -219.535 -689.931 17745.6)
(63.1177 150.824 -1226.2 -83.8132 -1157 15819.2)
(467.26 511.522 -48.7249 136.77 -708.966 13458.2)
(369.113 740.174 1921.22 362.675 722.874 12761.1)
(-337.357 642.094 2495.72 410.271 2530.39 14158.8)
(-1581.95 274.319 112.652 44.8267 3715.68 16036.8)
(-5317.21 -116.723 -3012.45 -927.951 4428.95 18557.7)
(-1034.41 -177.06 2768.29 4393.47 -4129.19 -2641.04)
(-1241.26 397.997 1980.12 1046.77 -3076.01 13896)
(-771.132 759.495 -1498.43 -668.387 -2547.56 20138.4)
(38.4616 815.986 -2171.25 -1006.64 -1769.73 19616.6)
(432.591 523.503 -810.093 -883.574 -1127.23 18149.7)
(297.96 82.4324 797.461 -739.891 -1119.61 18164.2)
(-140.023 -251.621 1176.79 -635.021 -1693.01 19325)
(-512.053 -346.85 -69.03 -529.975 -2368.02 19854.4)
(-539.924 -233.801 -2086.7 -392.189 -2620.51 18321.9)
(-207.731 -45.5099 -3504.83 -228.518 -2225.65 14701.6)
(258.798 92.8305 -3390.38 -100.439 -1347.55 10321.3)
(559.963 120.176 -1837.55 -40.1771 -320.987 7008.9)
(533.671 44.9248 162.433 -57.4887 490.835 5855.98)
(245.151 -75.4325 1491.65 -109.896 867.089 6642.59)
(-100.568 -170.322 1607.78 -139.677 770.062 8253.85)
(-304.532 -178.815 725.479 -117.779 355.609 9514.14)
(-265.466 -78.4291 -434.09 -60.1182 -55.027 9783.54)
(-10.1135 82.0021 -1030.61 -13.0828 -114.291 9179.32)
(303.43 189.026 -523.637 -21.1533 296.476 8531.55)
(437.478 152.226 916.005 -104.01 898.18 9015.74)
(237.808 -12.3664 2299.11 -229.756 1231.69 11308.5)
(-182.804 -188.112 2451.45 -348.063 979.46 14694.1)
(-472.159 -237.762 1108.07 -388.986 203.704 17269.8)
(-338.494 -92.2864 -610.07 -303.531 -682.092 17447.7)
(143.625 219.72 -1055.62 -103.178 -1100.52 15502.1)
(536.237 580.17 407.737 141.178 -566.476 13423.2)
(383.691 789.354 2566.01 316.681 981.771 13317.2)
(-395.702 653.719 3076.46 209.61 2817.53 15480.7)
(-1712.14 246.484 385.115 -497.092 3745.93 18135.7)
(-5856.24 -106.393 -3103.55 -2071.2 3729.41 21637.3)
(-519.663 -277.676 2586.32 4536.61 -783.485 -4405.88)
(-1035.95 68.6575 2346.42 903.095 -2406.69 12728.7)
(-690.77 608.397 -691.702 -1020.43 -3066.95 19820.4)
(0.679676 767.181 -1317.01 -1479.62 -2498.71 20213)
(319.143 499.833 -254.002 -1417.02 -1768.54 19402.3)
(176.433 62.8859 918.817 -1290.42 -1645.75 19631.1)
(-216.666 -262.496 946.804 -1169.07 -2106.62 20624.6)
(-527.975 -342.073 -451.949 -1003.46 -2669.79 20783.1)
(-513.415 -215.155 -2434.55 -764.746 -2817.04 18887.8)
(-170.423 -27.4961 -3726 -485.538 -2334.02 15048.3)
(282.657 93.6589 -3490.84 -260.986 -1408.02 10595.5)
(561.877 97.4828 -1880.33 -162.162 -370.687 7320.67)
(520.02 8.02664 104.104 -198.955 423.798 6221.5)
(230.245 -105.885 1377.62 -292.695 782.387 6997.19)
(-102.425 -176.997 1449.24 -344.667 692.623 8503.06)
(-285.578 -158.851 581.378 -307.999 315.325 9598.9)
(-230.849 -44.1394 -487.193 -212.343 -50.0907 9735.94)
(20.7204 111.382 -953.777 -134.955 -92.5842 9129.13)
(308.695 198.132 -362.359 -145.739 284.637 8627.17)
(412.11 139.001 1053.3 -272.022 812.43 9298.45)
(200.579 -34.251 2319.29 -475.546 1074.02 11691.8)
(-201.18 -194.231 2347.99 -669.114 783.007 15015.1)
(-450.163 -205.864 976.292 -731.629 19.1978 17408.4)
(-276.756 -20.8576 -624.423 -590.238 -805.008 17423.3)
(224.284 306.795 -828.605 -294.643 -1125.59 15498.9)
(601.379 649.579 918.291 9.03269 -474.563 13729.5)
(395.192 815.243 3264.18 139.524 1170.87 14226.2)
(-449.69 620.233 3718.38 -149.668 2944.17 17133.5)
(-1814.85 155.657 745.294 -1237.09 3384.51 20488.9)
(-6325.81 -104.055 -3097.51 -3448.91 2157.08 24751.7)
(-373.763 -378.948 2495.01 4050.51 2371.35 -4165.18)
(-872.679 -269.04 2679.21 487.884 -1949.17 12216.5)
(-606.656 441.169 81.8065 -1489.68 -3866.15 19673.5)
(-36.5799 704.677 -507.402 -2040.62 -3566.14 20875.9)
(206.396 467.796 254.763 -2045.97 -2783.17 20711.3)
(58.1426 40.9005 1003.01 -1955 -2560.54 21154.1)
(-287.916 -266.7 694.486 -1844.29 -2912.06 21989.1)
(-538.307 -317.777 -843.685 -1636.83 -3337.02 21797.6)
(-484.338 -166.374 -2784.35 -1291.78 -3315.71 19571.8)
(-135.647 22.9354 -3954.43 -867 -2659.03 15546.3)
(300.187 116.85 -3613.66 -503.67 -1604.9 11031.1)
(557.965 79.2104 -1961.21 -336.406 -517.887 7779.16)
(505.559 -38.4601 2.88235 -386.472 250.996 6698.27)
(220.837 -148.405 1233.66 -533.856 560.915 7425.54)
(-95.3569 -188.29 1286.93 -626.109 455.395 8809.25)
(-259.102 -133.875 459.86 -588.582 116.248 9757.06)
(-193.815 -0.507197 -504.241 -459.388 -184.047 9803.06)
(48.1475 146.204 -845.304 -344.947 -188.145 9234.35)
(307.219 202.194 -186.456 -345.103 161.553 8892.26)