/*--------------------------------*- C++ -*----------------------------------*\
| =========                 |                                                 |
| \\      /  F ield         | OpenFOAM: The Open Source CFD Toolbox           |
|  \\    /   O peration     | Version:  2106                                  |
|   \\  /    A nd           | Website:  www.openfoam.com                      |
|    \\/     M anipulation  |                                                 |
\*---------------------------------------------------------------------------*/
FoamFile
{
    version     2.0;
    format      ascii;
    arch        "LSB;label=32;scalar=64";
    class       volSymmTensorField;
    location    "1258";
    object      sigma;
}
// * * * * * * * * * * * * * * * * * * * * * * * * * * * * * * * * * * * * * //

dimensions      [1 -1 -2 0 0 0 0];

internalField   nonuniform List<symmTensor> 
9000
(
(-3.79512e+12 2.04455e+11 -6.80476e+12 -9.61439e+11 8.85127e+12 -2.89239e+13)
(1.62716e+12 6.03303e+10 -6.79208e+12 9.44362e+11 6.35963e+12 -2.25488e+12)
(5.78995e+12 -8.96381e+10 -4.10846e+12 2.07621e+12 5.13802e+12 1.42777e+13)
(1.19137e+13 -1.02414e+11 -3.37939e+12 3.9047e+12 4.75852e+12 3.46606e+13)
(1.45363e+13 -5.08391e+10 -5.75737e+12 4.67902e+12 4.36129e+12 4.4171e+13)
(1.08174e+13 1.39077e+10 -8.74243e+12 3.47609e+12 3.56053e+12 3.22712e+13)
(2.47447e+12 4.68376e+10 -8.81843e+12 8.52813e+11 2.56365e+12 4.57275e+12)
(-5.18678e+12 2.9776e+10 -4.98819e+12 -1.4944e+12 1.76698e+12 -2.04864e+13)
(-7.69401e+12 -1.81857e+10 4.3297e+11 -2.17134e+12 1.47497e+12 -2.76515e+13)
(-4.45844e+12 -6.19551e+10 4.18705e+12 -1.06069e+12 1.68841e+12 -1.55179e+13)
(1.61522e+12 -7.37934e+10 4.55274e+12 8.51777e+11 2.10978e+12 5.37911e+12)
(6.468e+12 -5.01687e+10 2.20284e+12 2.29474e+12 2.4251e+12 2.11771e+13)
(7.6732e+12 -1.05227e+10 -6.73981e+11 2.57376e+12 2.46109e+12 2.42825e+13)
(5.55128e+12 2.2918e+10 -2.31849e+12 1.86477e+12 2.23457e+12 1.66426e+13)
(1.93467e+12 3.92226e+10 -2.43274e+12 7.66279e+11 1.91739e+12 4.65619e+12)
(-1.34029e+12 3.65479e+10 -1.32637e+12 -2.09729e+11 1.73587e+12 -6.18412e+12)
(-2.67722e+12 1.56638e+10 9.8747e+11 -6.20431e+11 1.86503e+12 -1.10845e+13)
(-7.23902e+11 -1.18977e+10 3.94801e+12 -7.07172e+09 2.3163e+12 -4.92275e+12)
(4.22837e+12 -2.23649e+10 5.31055e+12 1.59533e+12 2.90559e+12 1.21389e+13)
(8.58516e+12 2.0706e+09 3.18935e+12 3.05899e+12 3.37248e+12 2.77641e+13)
(8.4519e+12 4.73381e+10 -1.08287e+12 3.08403e+12 3.53294e+12 2.7651e+13)
(3.46466e+12 7.23268e+10 -3.77447e+12 1.51527e+12 3.40641e+12 1.01015e+13)
(-2.36998e+12 5.0315e+10 -2.34779e+12 -3.32748e+11 3.22744e+12 -1.04606e+13)
(-4.15864e+12 -5.42619e+09 1.72292e+12 -8.46783e+11 3.22064e+12 -1.62625e+13)
(-9.61824e+11 -5.63577e+10 4.30553e+12 2.53111e+11 3.37065e+12 -4.12391e+12)
(3.47633e+12 -7.48697e+10 3.07249e+12 1.66977e+12 3.3957e+12 1.18364e+13)
(4.82492e+12 -6.35593e+10 -1.56862e+10 1.95982e+12 3.04168e+12 1.58962e+13)
(2.82605e+12 -4.1509e+10 -1.35379e+12 1.12348e+12 2.43359e+12 7.76897e+12)
(5.81119e+11 -3.3768e+10 1.39334e+10 2.80299e+11 2.03715e+12 -9.6475e+11)
(-3.69774e+11 -6.02589e+10 1.27018e+12 -7.39869e+10 2.25335e+12 -5.26425e+12)
(-7.00988e+12 1.90831e+11 -5.64621e+12 -6.83617e+12 2.44896e+13 -3.90826e+13)
(-1.06525e+12 -3.60157e+11 -5.73883e+12 -9.83145e+11 1.61285e+13 -7.7047e+12)
(4.12146e+12 -6.46834e+11 -4.19602e+12 2.23418e+12 1.16181e+13 9.5548e+12)
(1.01163e+13 -5.84205e+11 -3.75421e+12 5.52588e+12 9.0079e+12 2.7223e+13)
(1.27559e+13 -1.27267e+11 -5.47996e+12 6.97219e+12 7.21354e+12 3.55678e+13)
(9.48955e+12 4.17815e+11 -7.65403e+12 5.14931e+12 6.17789e+12 2.59029e+13)
(1.82061e+12 6.44367e+11 -7.48906e+12 8.71463e+11 5.97967e+12 2.65082e+12)
(-5.27428e+12 4.0239e+11 -4.17689e+12 -3.00386e+12 6.08754e+12 -1.85169e+13)
(-7.59813e+12 -9.15586e+10 3.51411e+11 -4.11853e+12 5.99752e+12 -2.4582e+13)
(-4.61317e+12 -4.90155e+11 3.42749e+12 -2.28642e+12 5.57483e+12 -1.43578e+13)
(9.82156e+11 -5.64427e+11 3.68424e+12 8.57065e+11 4.91296e+12 3.25136e+12)
(5.41002e+12 -3.27825e+11 1.73066e+12 3.1905e+12 4.37541e+12 1.64783e+13)
(6.43524e+12 1.19406e+10 -5.89498e+11 3.57494e+12 4.18275e+12 1.89191e+13)
(4.42864e+12 2.55292e+11 -1.85334e+12 2.37446e+12 4.23523e+12 1.23859e+13)
(1.08428e+12 3.35594e+11 -1.90197e+12 5.75293e+11 4.44345e+12 2.27631e+12)
(-1.98856e+12 2.61654e+11 -1.03127e+12 -1.07289e+12 4.90015e+12 -6.98177e+12)
(-3.38303e+12 3.90156e+10 8.23134e+11 -1.91403e+12 5.63407e+12 -1.15036e+13)
(-1.74767e+12 -2.53675e+11 3.30432e+12 -1.08362e+12 6.2623e+12 -6.71971e+12)
(2.83916e+12 -3.77054e+11 4.52297e+12 1.5631e+12 6.33476e+12 7.69196e+12)
(6.95516e+12 -1.40677e+11 2.80661e+12 4.06843e+12 6.23492e+12 2.10835e+13)
(6.82128e+12 3.10069e+11 -7.65721e+11 4.10334e+12 6.66286e+12 2.09546e+13)
(2.03192e+12 5.80002e+11 -3.04196e+12 1.3368e+12 7.79448e+12 5.70655e+12)
(-3.59082e+12 4.03736e+11 -1.84821e+12 -1.94773e+12 9.04459e+12 -1.22111e+13)
(-5.30546e+12 -7.39935e+10 1.58915e+12 -2.87046e+12 9.52434e+12 -1.72846e+13)
(-2.18238e+12 -4.35511e+11 3.77562e+12 -9.04198e+11 8.92488e+12 -6.67389e+12)
(2.17098e+12 -4.18389e+11 2.75134e+12 1.67624e+12 7.67294e+12 7.3877e+12)
(3.5895e+12 -1.58155e+11 1.75961e+11 2.34316e+12 6.40987e+12 1.12764e+13)
(1.77105e+12 3.32978e+10 -9.48905e+11 1.02891e+12 5.49781e+12 4.59423e+12)
(-4.01977e+11 3.3139e+10 1.21041e+11 -4.46084e+11 5.18825e+12 -2.9541e+12)
(-1.07631e+12 -9.5528e+10 1.09918e+12 -1.21351e+12 6.02065e+12 -7.44646e+12)
(-5.6464e+12 2.45782e+11 -4.46369e+12 -6.74446e+12 3.11617e+13 -2.97929e+13)
(1.08474e+12 -7.76253e+11 -5.10196e+12 6.87543e+11 1.9513e+13 -9.83707e+11)
(5.7746e+12 -1.0334e+12 -4.60805e+12 4.39383e+12 1.33044e+13 1.32787e+13)
(1.07022e+13 -8.84889e+11 -4.37378e+12 7.8884e+12 9.48123e+12 2.64158e+13)
(1.2717e+13 -1.81346e+11 -5.36931e+12 9.28746e+12 6.97927e+12 3.22386e+13)
(9.70335e+12 6.6351e+11 -6.62128e+12 7.01996e+12 6.15497e+12 2.40272e+13)
(2.94545e+12 1.01652e+12 -6.13839e+12 2.00809e+12 6.93419e+12 5.14704e+12)
(-3.28372e+12 6.36906e+11 -3.34921e+12 -2.50275e+12 8.01288e+12 -1.19796e+13)
(-5.38056e+12 -1.35534e+11 2.3107e+11 -3.83437e+12 8.21645e+12 -1.6996e+13)
(-2.90227e+12 -7.57248e+11 2.57329e+12 -1.79417e+12 7.30676e+12 -9.01715e+12)
(1.79847e+12 -8.71194e+11 2.70669e+12 1.72499e+12 5.75771e+12 4.77078e+12)
(5.48524e+12 -4.99731e+11 1.18756e+12 4.31346e+12 4.52189e+12 1.5011e+13)
(6.2604e+12 2.85902e+10 -5.21625e+11 4.69053e+12 4.16396e+12 1.66743e+13)
(4.47311e+12 4.02629e+11 -1.36389e+12 3.28975e+12 4.50841e+12 1.13118e+13)
(1.58755e+12 5.24418e+11 -1.3147e+12 1.24082e+12 5.22158e+12 3.24905e+12)
(-1.03e+12 4.1056e+11 -6.51168e+11 -6.11344e+11 6.19234e+12 -4.06129e+12)
(-2.18758e+12 6.50374e+10 7.42805e+11 -1.52859e+12 7.26094e+12 -7.59702e+12)
(-7.17444e+11 -3.98641e+11 2.69201e+12 -5.21848e+11 7.78893e+12 -3.67355e+12)
(3.32953e+12 -5.99862e+11 3.71885e+12 2.57807e+12 7.25262e+12 8.06184e+12)
(6.9832e+12 -2.29503e+11 2.43884e+12 5.52579e+12 6.57794e+12 1.90389e+13)
(6.969e+12 4.82519e+11 -3.43205e+11 5.65343e+12 7.11569e+12 1.91799e+13)
(2.92019e+12 9.11005e+11 -2.14672e+12 2.56963e+12 9.126e+12 7.14599e+12)
(-1.86648e+12 6.33446e+11 -1.2334e+12 -1.12538e+12 1.13857e+13 -7.08115e+12)
(-3.2929e+12 -1.22058e+11 1.43917e+12 -2.14725e+12 1.2186e+13 -1.10241e+13)
(-5.73132e+11 -6.90955e+11 3.10342e+12 9.28077e+10 1.10316e+13 -2.43815e+12)
(3.12856e+12 -6.57013e+11 2.2296e+12 2.9702e+12 8.93075e+12 8.72557e+12)
(4.18595e+12 -2.3851e+11 1.79266e+11 3.5955e+12 7.22545e+12 1.14556e+13)
(2.37211e+12 6.82311e+10 -6.69245e+11 1.92295e+12 6.38268e+12 5.54943e+12)
(2.53972e+11 7.73009e+10 1.94874e+11 7.86428e+10 6.30857e+12 -9.73438e+11)
(-7.02438e+11 -1.491e+11 8.70138e+11 -9.99399e+11 7.50872e+12 -5.00718e+12)
(-2.9024e+12 2.74387e+11 -3.21564e+12 -5.62465e+12 3.25485e+13 -1.33371e+13)
(4.31038e+12 -1.03524e+12 -4.66633e+12 2.48926e+12 1.9544e+13 9.39341e+12)
(8.03839e+12 -1.20861e+12 -5.13482e+12 6.16887e+12 1.2741e+13 1.92632e+13)
(1.15384e+13 -9.99759e+11 -5.06586e+12 9.18866e+12 8.48192e+12 2.73881e+13)
(1.27157e+13 -1.84583e+11 -5.30637e+12 1.02213e+13 5.764e+12 3.03146e+13)
(1.00091e+13 8.01246e+11 -5.58768e+12 7.89074e+12 5.21969e+12 2.33569e+13)
(4.44143e+12 1.2137e+12 -4.75391e+12 3.04694e+12 6.67864e+12 8.89261e+12)
(-6.47386e+11 7.62375e+11 -2.49916e+12 -1.28389e+12 8.40717e+12 -4.07576e+12)
(-2.44252e+12 -1.52397e+11 9.56874e+10 -2.60359e+12 8.8448e+12 -8.01932e+12)
(-6.21628e+11 -8.87844e+11 1.66988e+12 -7.56146e+11 7.68715e+12 -2.39502e+12)
(2.9207e+12 -1.02159e+12 1.6723e+12 2.45333e+12 5.64395e+12 7.36829e+12)
(5.66183e+12 -5.80999e+11 6.10813e+11 4.78039e+12 4.01752e+12 1.44566e+13)
(6.14087e+12 4.26677e+10 -4.56479e+11 5.05107e+12 3.57824e+12 1.52979e+13)
(4.65788e+12 4.81234e+11 -8.56252e+11 3.70038e+12 4.12272e+12 1.11446e+13)
(2.37708e+12 6.21598e+11 -6.95485e+11 1.79042e+12 5.16512e+12 5.22027e+12)
(3.66462e+11 4.85076e+11 -2.28766e+11 8.68399e+10 6.43253e+12 6.35947e+09)
(-4.47872e+11 7.54636e+10 6.99209e+11 -7.40134e+11 7.62237e+12 -2.34469e+12)
(8.39412e+11 -4.76565e+11 2.08335e+12 2.52305e+11 7.98511e+12 8.57389e+11)
(4.16892e+12 -7.17762e+11 2.89075e+12 3.24948e+12 7.03427e+12 9.86216e+12)
(7.18985e+12 -2.77995e+11 2.06662e+12 6.12808e+12 6.00202e+12 1.83335e+13)
(7.32855e+12 5.68047e+11 1.27508e+11 6.35577e+12 6.57079e+12 1.88335e+13)
(4.28451e+12 1.07692e+12 -1.16985e+12 3.53865e+12 9.02387e+12 1.03294e+13)
(6.39884e+11 7.45622e+11 -5.62955e+11 1.17127e+11 1.17878e+13 1.58412e+11)
(-3.99718e+11 -1.54163e+11 1.27233e+12 -8.11313e+11 1.27312e+13 -2.50872e+12)
(1.74999e+12 -8.29237e+11 2.348e+12 1.29788e+12 1.1276e+13 3.88456e+12)
(4.5438e+12 -7.82849e+11 1.6003e+12 3.93889e+12 8.76009e+12 1.18082e+13)
(5.10479e+12 -2.7831e+11 8.90867e+10 4.38286e+12 6.9224e+12 1.3057e+13)
(3.31447e+12 8.894e+10 -4.4753e+11 2.61928e+12 6.251e+12 7.72741e+12)
(1.30117e+12 9.89205e+10 2.49361e+11 6.95092e+11 6.37313e+12 2.22397e+12)
(-3.11992e+10 -1.86934e+11 5.94855e+11 -5.78494e+11 7.70624e+12 -9.98331e+11)
(1.77724e+11 2.74012e+11 -1.96013e+12 -3.77284e+12 3.05903e+13 4.50582e+12)
(7.62401e+12 -1.07996e+12 -4.29329e+12 4.47441e+12 1.77647e+13 1.99824e+13)
(1.02787e+13 -1.17646e+12 -5.61735e+12 7.80426e+12 1.11903e+13 2.52448e+13)
(1.23304e+13 -9.48242e+11 -5.68937e+12 1.00176e+13 7.08182e+12 2.86747e+13)
(1.26649e+13 -1.40981e+11 -5.22369e+12 1.05246e+13 4.49352e+12 2.88706e+13)
(1.02838e+13 8.42066e+11 -4.58166e+12 8.31347e+12 4.14295e+12 2.3037e+13)
(5.95176e+12 1.25116e+12 -3.41234e+12 4.08223e+12 5.84103e+12 1.26879e+13)
(2.04929e+12 7.86676e+11 -1.67614e+12 3.34649e+11 7.78843e+12 3.62522e+12)
(5.74028e+11 -1.47255e+11 -3.5629e+10 -8.6192e+11 8.34439e+12 7.014e+11)
(1.72156e+12 -8.96697e+11 7.94316e+11 5.912e+11 7.17823e+12 4.11718e+12)
(4.07095e+12 -1.03151e+12 6.70097e+11 3.14915e+12 5.06091e+12 1.00809e+13)
(5.83971e+12 -5.81332e+11 5.40505e+10 4.95863e+12 3.37561e+12 1.41859e+13)
(6.01906e+12 5.34574e+10 -3.91053e+11 5.07622e+12 2.94188e+12 1.4244e+13)
(4.85714e+12 4.96996e+11 -3.64103e+11 3.90086e+12 3.567e+12 1.123e+13)
(3.20861e+12 6.34617e+11 -9.50553e+10 2.32245e+12 4.72118e+12 7.33552e+12)
(1.83173e+12 4.89566e+11 1.85563e+11 9.44337e+11 6.05443e+12 4.12505e+12)
(1.37587e+12 6.83058e+10 6.66214e+11 2.97791e+11 7.2014e+12 2.92563e+12)
(2.47409e+12 -4.94822e+11 1.49891e+12 1.18978e+12 7.42789e+12 5.48119e+12)
(5.05757e+12 -7.38592e+11 2.08646e+12 3.80871e+12 6.33883e+12 1.19325e+13)
(7.42124e+12 -2.88059e+11 1.70388e+12 6.3623e+12 5.21998e+12 1.80604e+13)
(7.71958e+12 5.74126e+11 5.87165e+11 6.69677e+12 5.7777e+12 1.89304e+13)
(5.72009e+12 1.09001e+12 -2.16594e+11 4.4463e+12 8.27156e+12 1.37979e+13)
(3.26247e+12 7.48206e+11 8.70652e+10 1.64949e+12 1.10674e+13 7.49589e+12)
(2.62374e+12 -1.71734e+11 1.09611e+12 9.13885e+11 1.19925e+13 6.05758e+12)
(4.17695e+12 -8.57679e+11 1.58591e+12 2.6851e+12 1.04771e+13 1.03703e+13)
(6.02161e+12 -8.01069e+11 9.51247e+11 4.81495e+12 7.92901e+12 1.51801e+13)
(6.06788e+12 -2.76483e+11 -3.8781e+10 4.99916e+12 6.17485e+12 1.49547e+13)
(4.30987e+12 9.80865e+10 -2.64261e+11 3.2749e+12 5.67018e+12 1.00982e+13)
(2.41148e+12 9.47758e+10 2.80108e+11 1.42282e+12 5.88759e+12 5.54533e+12)
(6.88595e+11 -2.05083e+11 2.97087e+11 1.84884e+10 7.15847e+12 3.17752e+12)
(3.00888e+12 2.62437e+11 -7.70878e+11 -1.4935e+12 2.63272e+13 2.04536e+13)
(1.04927e+13 -9.34427e+11 -3.89247e+12 6.5068e+12 1.49077e+13 2.89931e+13)
(1.21689e+13 -9.83358e+11 -5.94503e+12 9.32216e+12 9.1705e+12 3.01688e+13)
(1.29445e+13 -7.756e+11 -6.14357e+12 1.06172e+13 5.60022e+12 2.96666e+13)
(1.25468e+13 -6.51023e+10 -5.08199e+12 1.05516e+13 3.35653e+12 2.75927e+13)
(1.04825e+13 8.06722e+11 -3.6478e+12 8.54267e+12 3.10616e+12 2.27523e+13)
(7.28906e+12 1.16395e+12 -2.19831e+12 5.11026e+12 4.69632e+12 1.59573e+13)
(4.47903e+12 7.30358e+11 -9.35094e+11 2.11308e+12 6.52364e+12 1.02768e+13)
(3.30308e+12 -1.28335e+11 -1.50509e+11 1.08436e+12 7.09517e+12 8.2478e+12)
(3.83752e+12 -8.14261e+11 1.48617e+10 2.05836e+12 6.0897e+12 9.75898e+12)
(5.09537e+12 -9.34593e+11 -2.20049e+11 3.82402e+12 4.21118e+12 1.24299e+13)
(5.97322e+12 -5.19859e+11 -4.35892e+11 5.01255e+12 2.7186e+12 1.39442e+13)
(5.87789e+12 6.14875e+10 -3.25758e+11 4.96128e+12 2.36057e+12 1.33178e+13)
(5.01417e+12 4.63845e+11 7.84221e+10 4.01527e+12 2.97534e+12 1.12984e+13)
(3.95223e+12 5.81958e+11 4.38869e+11 2.84831e+12 4.06984e+12 9.18235e+12)
(3.15954e+12 4.39496e+11 5.4904e+11 1.8684e+12 5.2918e+12 7.72024e+12)
(3.0259e+12 4.76073e+10 6.27997e+11 1.44019e+12 6.28495e+12 7.5065e+12)
(3.94044e+12 -4.66531e+11 9.67449e+11 2.19647e+12 6.41768e+12 9.48029e+12)
(5.83907e+12 -6.8366e+11 1.35861e+12 4.32124e+12 5.40499e+12 1.37259e+13)
(7.60599e+12 -2.67349e+11 1.37089e+12 6.44213e+12 4.40348e+12 1.78474e+13)
(8.05522e+12 5.20223e+11 9.8846e+11 6.88662e+12 4.92347e+12 1.90593e+13)
(7.01116e+12 9.86262e+11 6.23137e+11 5.32952e+12 7.17124e+12 1.68509e+13)
(5.63529e+12 6.66489e+11 6.51732e+11 3.30525e+12 9.66121e+12 1.3891e+13)
(5.36057e+12 -1.78305e+11 9.18859e+11 2.80289e+12 1.04494e+13 1.35132e+13)
(6.36824e+12 -8.00804e+11 8.84149e+11 4.14716e+12 9.0421e+12 1.60253e+13)
(7.34527e+12 -7.34317e+11 3.53719e+11 5.65097e+12 6.73411e+12 1.81304e+13)
(6.92674e+12 -2.39532e+11 -1.66565e+11 5.54729e+12 5.2119e+12 1.66241e+13)
(5.20652e+12 1.00636e+11 -1.13468e+11 3.92691e+12 4.8643e+12 1.2177e+13)
(3.41187e+12 7.14492e+10 2.81012e+11 2.22451e+12 5.10045e+12 8.44321e+12)
(1.32887e+12 -2.08879e+11 -1.66805e+09 7.48452e+11 6.17413e+12 6.78333e+12)
(5.24323e+12 2.514e+11 2.89565e+11 8.67751e+11 2.06195e+13 3.26692e+13)
(1.26379e+13 -6.57728e+11 -3.41957e+12 8.39944e+12 1.14951e+13 3.5562e+13)
(1.35503e+13 -6.92272e+11 -6.06067e+12 1.06581e+13 6.99209e+12 3.35987e+13)
(1.33189e+13 -5.34822e+11 -6.37464e+12 1.10684e+13 4.16395e+12 3.01249e+13)
(1.23547e+13 2.62801e+10 -4.86226e+12 1.04641e+13 2.36492e+12 2.63657e+13)
(1.0584e+13 7.21607e+11 -2.81831e+12 8.68973e+12 2.14936e+12 2.23818e+13)
(8.36052e+12 9.96675e+11 -1.16928e+12 6.09125e+12 3.42613e+12 1.84545e+13)
(6.47686e+12 6.20464e+11 -3.14712e+11 3.87079e+12 4.92839e+12 1.5497e+13)
(5.55677e+12 -1.04267e+11 -2.44234e+11 3.01541e+12 5.44333e+12 1.41924e+13)
(5.57394e+12 -6.77182e+11 -6.26908e+11 3.49673e+12 4.6871e+12 1.41697e+13)
(5.91042e+12 -7.71956e+11 -9.48074e+11 4.45186e+12 3.22763e+12 1.41899e+13)
(6.03541e+12 -4.19849e+11 -8.29545e+11 5.00969e+12 2.07731e+12 1.36181e+13)
(5.70752e+12 6.77909e+10 -2.61356e+11 4.79321e+12 1.84158e+12 1.24408e+13)
(5.09976e+12 3.9942e+11 4.48617e+11 4.08858e+12 2.39362e+12 1.12365e+13)
(4.53963e+12 4.87129e+11 8.74895e+11 3.3453e+12 3.32242e+12 1.0573e+13)
(4.2406e+12 3.54929e+11 8.34345e+11 2.77168e+12 4.32448e+12 1.05202e+13)
(4.36718e+12 1.9253e+10 5.7582e+11 2.563e+12 5.10343e+12 1.10645e+13)
(5.11102e+12 -4.08073e+11 5.0933e+11 3.17316e+12 5.17683e+12 1.25236e+13)
(6.43024e+12 -5.80565e+11 7.42841e+11 4.78236e+12 4.36494e+12 1.4992e+13)
(7.70169e+12 -2.26466e+11 1.08273e+12 6.452e+12 3.59608e+12 1.7525e+13)
(8.28394e+12 4.30188e+11 1.30327e+12 7.00543e+12 4.0626e+12 1.9031e+13)
(8.04202e+12 8.10899e+11 1.29373e+12 6.15853e+12 5.90332e+12 1.91652e+13)
(7.56817e+12 5.32723e+11 1.09073e+12 4.92527e+12 7.8979e+12 1.88627e+13)
(7.59367e+12 -1.78037e+11 7.46623e+11 4.65758e+12 8.47869e+12 1.93157e+13)
(8.14304e+12 -6.89784e+11 2.86749e+11 5.55911e+12 7.26891e+12 2.03795e+13)
(8.39612e+12 -6.11828e+11 -1.4491e+11 6.42492e+12 5.35617e+12 2.03244e+13)
(7.60022e+12 -1.76384e+11 -2.67566e+11 6.0455e+12 4.1558e+12 1.78249e+13)
(5.92752e+12 1.0343e+11 1.11125e+10 4.56328e+12 3.96958e+12 1.37549e+13)
(4.21862e+12 3.99212e+10 2.50888e+11 3.04765e+12 4.19134e+12 1.06811e+13)
(1.82677e+12 -2.04137e+11 -2.8715e+11 1.55005e+12 5.00474e+12 9.48391e+12)
(6.7052e+12 2.43206e+11 1.17509e+12 3.00977e+12 1.42855e+13 4.03297e+13)
(1.39583e+13 -3.16421e+11 -2.87075e+12 9.99122e+12 7.97171e+12 3.94333e+13)
(1.43797e+13 -3.63996e+11 -5.95542e+12 1.17389e+13 4.89344e+12 3.54709e+13)
(1.34415e+13 -2.73602e+11 -6.37192e+12 1.13897e+13 2.86422e+12 3.00101e+13)
(1.20911e+13 1.18389e+11 -4.56182e+12 1.03354e+13 1.52169e+12 2.51556e+13)
(1.05849e+13 6.11546e+11 -2.1076e+12 8.8029e+12 1.30285e+12 2.18956e+13)
(9.13964e+12 7.91306e+11 -3.49692e+11 6.98481e+12 2.18066e+12 2.01395e+13)
(7.9908e+12 4.82988e+11 1.66596e+11 5.4832e+12 3.26771e+12 1.92237e+13)
(7.272e+12 -8.22365e+10 -3.18828e+11 4.78288e+12 3.68312e+12 1.84546e+13)
(6.87632e+12 -5.19264e+11 -1.1177e+12 4.80066e+12 3.19908e+12 1.72662e+13)
(6.48408e+12 -5.82109e+11 -1.49602e+12 5.00137e+12 2.22528e+12 1.52963e+13)
(6.01429e+12 -3.03348e+11 -1.11596e+12 4.97585e+12 1.47778e+12 1.31636e+13)
(5.50366e+12 7.3115e+10 -1.98344e+11 4.61019e+12 1.38777e+12 1.15817e+13)
(5.1035e+12 3.20352e+11 7.37081e+11 4.13413e+12 1.85648e+12 1.10104e+13)
(4.94529e+12 3.72564e+11 1.1999e+12 3.78589e+12 2.57133e+12 1.14566e+13)
(5.03345e+12 2.55027e+11 1.03034e+12 3.58649e+12 3.30538e+12 1.24532e+13)
(5.34985e+12 -1.11205e+10 5.06716e+11 3.57409e+12 3.85132e+12 1.35164e+13)
(5.94011e+12 -3.34786e+11 1.33377e+11 4.04034e+12 3.88957e+12 1.45301e+13)
(6.79878e+12 -4.5521e+11 2.5426e+11 5.16841e+12 3.32769e+12 1.56555e+13)
(7.68767e+12 -1.75457e+11 8.46935e+11 6.4216e+12 2.83378e+12 1.7024e+13)
(8.38077e+12 3.2616e+11 1.52256e+12 7.07906e+12 3.24121e+12 1.87693e+13)
(8.76691e+12 6.06124e+11 1.77528e+12 6.89068e+12 4.61851e+12 2.06453e+13)
(8.99156e+12 3.77273e+11 1.38942e+12 6.38623e+12 6.05075e+12 2.22931e+13)
(9.24349e+12 -1.74442e+11 5.82685e+11 6.32938e+12 6.39512e+12 2.33317e+13)
(9.43195e+12 -5.53705e+11 -1.86498e+11 6.81705e+12 5.40977e+12 2.3303e+13)
(9.12664e+12 -4.61333e+11 -5.20963e+11 7.09824e+12 3.9498e+12 2.16578e+13)
(8.05717e+12 -9.61987e+10 -3.24008e+11 6.48458e+12 3.11114e+12 1.84846e+13)
(6.4494e+12 1.12554e+11 1.18878e+11 5.16197e+12 3.0986e+12 1.47915e+13)
(4.81084e+12 1.12495e+10 1.94133e+11 3.84804e+12 3.31055e+12 1.2228e+13)
(2.16657e+12 -1.94868e+11 -5.52603e+11 2.36591e+12 3.87179e+12 1.12281e+13)
(7.35658e+12 2.3457e+11 1.85705e+12 4.72085e+12 8.05416e+12 4.33711e+13)
(1.44827e+13 2.9817e+10 -2.26993e+12 1.11788e+13 4.69194e+12 4.0763e+13)
(1.46964e+13 -4.70768e+10 -5.65528e+12 1.25179e+13 3.04442e+12 3.59543e+13)
(1.33407e+13 -2.755e+10 -6.15676e+12 1.15854e+13 1.76781e+12 2.94052e+13)
(1.17725e+13 2.00594e+11 -4.18985e+12 1.02014e+13 8.37634e+11 2.39797e+13)
(1.05012e+13 4.96004e+11 -1.51517e+12 8.90533e+12 5.98305e+11 2.13237e+13)
(9.64838e+12 5.80752e+11 2.63059e+11 7.76552e+12 1.07583e+12 2.11077e+13)
(9.04644e+12 3.38794e+11 5.07437e+11 6.87771e+12 1.73985e+12 2.1606e+13)
(8.47133e+12 -6.71668e+10 -3.81099e+11 6.30023e+12 2.036e+12 2.11854e+13)
(7.75951e+12 -3.66719e+11 -1.46678e+12 5.9065e+12 1.80255e+12 1.91539e+13)
(6.82391e+12 -3.95455e+11 -1.87199e+12 5.45072e+12 1.29816e+12 1.57939e+13)
(5.91332e+12 -1.88115e+11 -1.29944e+12 4.92142e+12 9.47838e+11 1.25837e+13)
(5.27032e+12 7.76736e+10 -1.37146e+11 4.43009e+12 1.00739e+12 1.07387e+13)
(5.03099e+12 2.39755e+11 9.45354e+11 4.15592e+12 1.39398e+12 1.06357e+13)
(5.17535e+12 2.56267e+11 1.41587e+12 4.15071e+12 1.88979e+12 1.18717e+13)
(5.54496e+12 1.55088e+11 1.13903e+12 4.2702e+12 2.3534e+12 1.35808e+13)
(5.98349e+12 -3.91629e+10 4.21977e+11 4.41666e+12 2.67728e+12 1.49446e+13)
(6.4391e+12 -2.58674e+11 -1.61285e+11 4.7481e+12 2.69577e+12 1.55813e+13)
(6.95114e+12 -3.27677e+11 -1.08787e+11 5.46013e+12 2.38152e+12 1.57556e+13)
(7.56474e+12 -1.22048e+11 6.64795e+11 6.36114e+12 2.15484e+12 1.63409e+13)
(8.34606e+12 2.25384e+11 1.65238e+12 7.11494e+12 2.50632e+12 1.82731e+13)
(9.19263e+12 4.04757e+11 2.07622e+12 7.49457e+12 3.4383e+12 2.13455e+13)
(9.92012e+12 2.23974e+11 1.55367e+12 7.61114e+12 4.32811e+12 2.43007e+13)
(1.03261e+13 -1.69854e+11 4.28195e+11 7.72665e+12 4.43818e+12 2.56954e+13)
(1.02457e+13 -4.15146e+11 -5.35285e+11 7.85438e+12 3.66192e+12 2.48895e+13)
(9.54382e+12 -3.0491e+11 -7.69741e+11 7.6422e+12 2.64243e+12 2.21792e+13)
(8.30651e+12 -7.13266e+09 -3.25402e+11 6.85469e+12 2.16648e+12 1.86431e+13)
(6.78874e+12 1.31924e+11 2.21527e+11 5.70873e+12 2.33993e+12 1.53559e+13)
(5.21308e+12 -5.79176e+09 1.19341e+11 4.59921e+12 2.57243e+12 1.31905e+13)
(2.36811e+12 -1.83262e+11 -7.97126e+11 3.15414e+12 2.94816e+12 1.21675e+13)
(7.2641e+12 2.20808e+11 2.3252e+12 5.88948e+12 2.50916e+12 4.22775e+13)
(1.43261e+13 3.34927e+11 -1.65363e+12 1.1922e+13 1.89999e+12 3.99629e+13)
(1.45918e+13 2.2576e+11 -5.20509e+12 1.29842e+13 1.54032e+12 3.53463e+13)
(1.30716e+13 1.81534e+11 -5.76906e+12 1.16641e+13 9.08707e+11 2.84623e+13)
(1.14287e+13 2.66948e+11 -3.76248e+12 1.00816e+13 3.2053e+11 2.28909e+13)
(1.03646e+13 3.8808e+11 -1.03074e+12 9.0109e+12 5.87608e+10 2.07367e+13)
(9.94044e+12 3.87015e+11 6.89347e+11 8.42622e+12 1.85941e+11 2.15338e+13)
(9.71737e+12 2.02329e+11 7.17975e+11 8.02612e+12 4.70505e+11 2.29135e+13)
(9.23043e+12 -6.16134e+10 -4.40462e+11 7.53218e+12 6.44546e+11 2.26693e+13)
(8.28312e+12 -2.36681e+11 -1.69815e+12 6.7882e+12 6.14836e+11 2.0051e+13)
(6.96491e+12 -2.32418e+11 -2.10147e+12 5.79193e+12 5.11742e+11 1.57961e+13)
(5.74896e+12 -8.64601e+10 -1.39467e+12 4.85253e+12 5.10077e+11 1.19139e+13)
(5.01949e+12 8.12205e+10 -7.84246e+10 4.26249e+12 7.0843e+11 9.92995e+12)
(4.89978e+12 1.66438e+11 1.08225e+12 4.15721e+12 1.02689e+12 1.01589e+13)
(5.25724e+12 1.50643e+11 1.53504e+12 4.43204e+12 1.3269e+12 1.19107e+13)
(5.81336e+12 6.5527e+10 1.17118e+12 4.80436e+12 1.54787e+12 1.40438e+13)
(6.31544e+12 -6.21314e+10 3.25466e+11 5.0664e+12 1.67871e+12 1.55276e+13)
(6.65565e+12 -1.87779e+11 -3.81993e+11 5.27616e+12 1.68596e+12 1.5852e+13)
(6.9206e+12 -2.11113e+11 -3.58816e+11 5.65053e+12 1.5868e+12 1.54012e+13)
(7.3517e+12 -7.1236e+10 5.33559e+11 6.27604e+12 1.59056e+12 1.55183e+13)
(8.20078e+12 1.39191e+11 1.70848e+12 7.11681e+12 1.8957e+12 1.75936e+13)
(9.36196e+12 2.28351e+11 2.22326e+12 7.95708e+12 2.44593e+12 2.14114e+13)
(1.04221e+13 8.87111e+10 1.60265e+12 8.5674e+12 2.86595e+12 2.51411e+13)
(1.09178e+13 -1.65373e+11 2.83073e+11 8.81053e+12 2.76431e+12 2.66956e+13)
(1.06477e+13 -2.88874e+11 -7.72059e+11 8.64328e+12 2.15851e+12 2.53669e+13)
(9.69258e+12 -1.57666e+11 -8.99272e+11 8.04636e+12 1.52452e+12 2.2032e+13)
(8.3859e+12 8.42785e+10 -2.6675e+11 7.15507e+12 1.38531e+12 1.84104e+13)
(6.98898e+12 1.62952e+11 3.31481e+11 6.20221e+12 1.7518e+12 1.55824e+13)
(5.47911e+12 -5.85952e+09 3.76283e+10 5.29301e+12 2.0478e+12 1.37566e+13)
(2.47516e+12 -1.7016e+11 -1.0233e+12 3.89056e+12 2.34097e+12 1.25818e+13)
(6.56676e+12 1.98369e+11 2.58811e+12 6.4952e+12 -1.93882e+12 3.78921e+13)
(1.36511e+13 5.6844e+11 -1.05793e+12 1.22354e+13 -2.69265e+11 3.75742e+13)
(1.41822e+13 4.3689e+11 -4.65439e+12 1.31595e+13 4.08526e+11 3.3992e+13)
(1.27022e+13 3.44047e+11 -5.25543e+12 1.1643e+13 2.8667e+11 2.73602e+13)
(1.10977e+13 3.15612e+11 -3.29842e+12 9.98862e+12 -3.35067e+10 2.19633e+13)
(1.02164e+13 2.95117e+11 -6.392e+11 9.12997e+12 -3.08861e+11 2.02289e+13)
(1.00857e+13 2.22141e+11 9.58462e+11 8.97504e+12 -4.56753e+11 2.16274e+13)
(1.01007e+13 8.20634e+10 8.14621e+11 8.93392e+12 -4.81483e+11 2.34641e+13)
(9.65159e+12 -6.60243e+10 -5.07018e+11 8.48244e+12 -4.21156e+11 2.32465e+13)
(8.53051e+12 -1.37788e+11 -1.84303e+12 7.44973e+12 -3.03989e+11 2.02265e+13)
(6.95774e+12 -1.03943e+11 -2.21893e+12 6.02999e+12 -9.90227e+10 1.54508e+13)
(5.54625e+12 -5.38787e+09 -1.42204e+12 4.77524e+12 1.77043e+11 1.12094e+13)
(4.76857e+12 8.32377e+10 -2.32917e+10 4.11367e+12 4.94013e+11 9.1867e+12)
(4.73445e+12 1.05166e+11 1.16028e+12 4.14296e+12 7.64081e+11 9.64147e+12)
(5.23004e+12 6.27145e+10 1.57517e+12 4.63269e+12 9.07001e+11 1.16913e+13)
(5.89366e+12 -7.86857e+09 1.14212e+12 5.19018e+12 9.29767e+11 1.40195e+13)
(6.41269e+12 -7.87325e+10 2.22144e+11 5.52508e+12 9.05059e+11 1.54862e+13)
(6.65608e+12 -1.26499e+11 -5.39388e+11 5.62862e+12 9.04583e+11 1.55567e+13)
(6.75573e+12 -1.12419e+11 -5.13676e+11 5.74534e+12 9.74172e+11 1.47351e+13)
(7.07915e+12 -2.56927e+10 4.48485e+11 6.17228e+12 1.15885e+12 1.46267e+13)
(7.97943e+12 7.33412e+10 1.71128e+12 7.08982e+12 1.43101e+12 1.6813e+13)
(9.33787e+12 8.80462e+10 2.25189e+12 8.28209e+12 1.68447e+12 2.10334e+13)
(1.05935e+13 -1.99972e+10 1.5621e+12 9.2581e+12 1.73235e+12 2.51295e+13)
(1.11267e+13 -1.61037e+11 1.46868e+11 9.58429e+12 1.45297e+12 2.66883e+13)
(1.07299e+13 -1.82428e+11 -9.15629e+11 9.18841e+12 9.70708e+11 2.50254e+13)
(9.63994e+12 -2.81419e+10 -9.24483e+11 8.31814e+12 6.47214e+11 2.14083e+13)
(8.34991e+12 1.73267e+11 -1.46786e+11 7.39556e+12 8.02788e+11 1.79334e+13)
(7.10787e+12 2.0478e+11 4.6058e+11 6.65279e+12 1.36164e+12 1.56339e+13)
(5.67718e+12 1.25071e+10 -3.86954e+10 5.93544e+12 1.76346e+12 1.41479e+13)
(2.54368e+12 -1.55657e+11 -1.23471e+12 4.56526e+12 2.08487e+12 1.28093e+13)
(5.44519e+12 1.65623e+11 2.67145e+12 6.5894e+12 -5.057e+12 3.12512e+13)
(1.26355e+13 7.14501e+11 -5.09971e+11 1.21732e+13 -1.77582e+12 3.41711e+13)
(1.3587e+13 5.80801e+11 -4.04774e+12 1.3088e+13 -3.76374e+11 3.22268e+13)
(1.23011e+13 4.59457e+11 -4.66047e+12 1.15453e+13 -1.27728e+11 2.62725e+13)
(1.08189e+13 3.47689e+11 -2.81577e+12 9.93082e+12 -2.43698e+11 2.12769e+13)
(1.01002e+13 2.19999e+11 -3.24257e+11 9.27039e+12 -5.16688e+11 1.99e+13)
(1.01572e+13 9.04874e+10 1.10189e+12 9.42955e+12 -8.57324e+11 2.15976e+13)
(1.02984e+13 -1.81898e+10 8.1592e+11 9.62816e+12 -1.11242e+12 2.35722e+13)
(9.84333e+12 -7.91516e+10 -5.90083e+11 9.18028e+12 -1.15047e+12 2.32557e+13)
(8.59187e+12 -7.17896e+10 -1.93391e+12 7.91542e+12 -9.42314e+11 1.99534e+13)
(6.8585e+12 -1.32016e+10 -2.261e+12 6.17948e+12 -5.26864e+11 1.49132e+13)
(5.33396e+12 5.25496e+10 -1.40369e+12 4.69666e+12 -5.03066e+10 1.05333e+13)
(4.53729e+12 8.31142e+10 2.66241e+10 3.98845e+12 3.6043e+11 8.5454e+12)
(4.56184e+12 5.74347e+10 1.19286e+12 4.11966e+12 6.02525e+11 9.14875e+12)
(5.13641e+12 -4.91866e+09 1.55559e+12 4.76267e+12 6.32505e+11 1.13346e+13)
(5.84602e+12 -6.30283e+10 1.06843e+12 5.44238e+12 5.07475e+11 1.36891e+13)
(6.34783e+12 -8.8723e+10 1.17045e+11 5.81231e+12 3.66231e+11 1.50436e+13)
(6.51181e+12 -7.63683e+10 -6.44953e+11 5.82643e+12 3.58381e+11 1.4911e+13)
(6.51035e+12 -3.37751e+10 -5.92386e+11 5.75981e+12 5.47694e+11 1.39066e+13)
(6.78307e+12 1.34962e+10 4.04271e+11 6.05761e+12 8.62114e+11 1.37481e+13)
(7.72243e+12 2.90432e+10 1.68188e+12 7.0413e+12 1.11554e+12 1.60266e+13)
(9.1902e+12 -1.32477e+10 2.1992e+12 8.48544e+12 1.16078e+12 2.04101e+13)
(1.05384e+13 -9.94254e+10 1.45923e+12 9.71032e+12 9.3894e+11 2.45842e+13)
(1.10695e+13 -1.56083e+11 1.94574e+10 1.00798e+13 5.20359e+11 2.60333e+13)
(1.05942e+13 -9.7601e+10 -9.86159e+11 9.51735e+12 1.16983e+11 2.41655e+13)
(9.46175e+12 8.04389e+10 -8.62681e+11 8.4785e+12 2.57845e+10 2.05141e+13)
(8.25965e+12 2.56658e+11 3.34878e+10 7.5942e+12 4.27493e+11 1.73691e+13)
(7.20695e+12 2.5471e+11 6.19325e+11 7.07851e+12 1.16968e+12 1.56756e+13)
(5.87753e+12 4.68792e+10 -9.70335e+10 6.54047e+12 1.70677e+12 1.45826e+13)
(2.63062e+12 -1.39754e+11 -1.43379e+12 5.17604e+12 2.14446e+12 1.31842e+13)
(4.09481e+12 1.22608e+11 2.61408e+12 6.27246e+12 -6.77911e+12 2.34451e+13)
(1.14498e+13 7.69423e+11 -2.44595e+10 1.18136e+13 -2.65421e+12 3.02944e+13)
(1.29142e+13 6.60399e+11 -3.41959e+12 1.28255e+13 -8.75673e+11 3.03411e+13)
(1.19277e+13 5.32836e+11 -4.02173e+12 1.13962e+13 -3.8531e+11 2.53454e+13)
(1.06272e+13 3.65915e+11 -2.33005e+12 9.91263e+12 -3.44826e+11 2.09034e+13)
(1.00551e+13 1.62551e+11 -7.07615e+10 9.43654e+12 -5.95776e+11 1.98406e+13)
(1.02211e+13 -8.74828e+09 1.14903e+12 9.81011e+12 -1.05137e+12 2.16286e+13)
(1.04035e+13 -9.77375e+10 7.39892e+11 1.01455e+13 -1.46043e+12 2.35139e+13)
(9.90592e+12 -9.84726e+10 -6.9717e+11 9.66767e+12 -1.57729e+12 2.2997e+13)
(8.55157e+12 -3.54086e+10 -2.00021e+12 8.22005e+12 -1.32558e+12 1.94768e+13)
(6.72082e+12 4.23312e+10 -2.26168e+12 6.26028e+12 -7.8699e+11 1.43263e+13)
(5.14031e+12 8.8125e+10 -1.36073e+12 4.62457e+12 -1.81967e+11 9.94707e+12)
(4.34464e+12 8.0257e+10 6.92166e+10 3.89057e+12 2.96867e+11 8.04148e+12)
(4.40714e+12 2.23701e+10 1.19233e+12 4.09396e+12 5.28722e+11 8.74018e+12)
(5.01644e+12 -5.2879e+10 1.49462e+12 4.83538e+12 4.88086e+11 1.09502e+13)
(5.72721e+12 -1.00471e+11 9.65704e+11 5.58275e+12 2.64161e+11 1.32164e+13)
(6.18916e+12 -9.24556e+10 1.4719e+10 5.95732e+12 4.26262e+10 1.43997e+13)
(6.28973e+12 -3.69254e+10 -7.09357e+11 5.89958e+12 2.62792e+10 1.41076e+13)
(6.2357e+12 2.57089e+10 -6.12478e+11 5.71436e+12 2.90285e+11 1.30524e+13)
(6.49888e+12 4.60638e+10 3.95801e+11 5.94084e+12 6.87995e+11 1.29624e+13)
(7.4695e+12 4.14776e+09 1.6393e+12 6.97954e+12 9.35158e+11 1.53265e+13)
(8.98524e+12 -7.83701e+10 2.09899e+12 8.58874e+12 8.52089e+11 1.97229e+13)
(1.03541e+13 -1.50832e+11 1.31932e+12 9.96315e+12 4.54497e+11 2.37901e+13)
(1.08563e+13 -1.49184e+11 -9.84618e+10 1.03438e+13 -6.47649e+10 2.50538e+13)
(1.03383e+13 -3.21406e+10 -1.00177e+12 9.67056e+12 -4.2517e+11 2.30634e+13)
(9.23233e+12 1.6869e+11 -7.30454e+11 8.5563e+12 -3.54072e+11 1.95439e+13)
(8.17456e+12 3.32504e+11 2.71881e+11 7.77344e+12 2.45696e+11 1.68657e+13)
(7.34344e+12 3.08615e+11 8.1655e+11 7.49989e+12 1.15419e+12 1.58557e+13)
(6.14249e+12 9.12662e+10 -1.25134e+11 7.1234e+12 1.83264e+12 1.52479e+13)