/*--------------------------------*- C++ -*----------------------------------*\
| =========                 |                                                 |
| \\      /  F ield         | OpenFOAM: The Open Source CFD Toolbox           |
|  \\    /   O peration     | Version:  2106                                  |
|   \\  /    A nd           | Website:  www.openfoam.com                      |
|    \\/     M anipulation  |                                                 |
\*---------------------------------------------------------------------------*/
FoamFile
{
    version     2.0;
    format      ascii;
    arch        "LSB;label=32;scalar=64";
    class       volVectorField;
    location    "713";
    object      D;
}
// * * * * * * * * * * * * * * * * * * * * * * * * * * * * * * * * * * * * * //

dimensions      [0 1 0 0 0 0 0];

internalField   nonuniform List<vector> 
9000
(
(1.1401e-05 2.08534e-05 3.13279e-06)
(1.32493e-06 2.19596e-05 8.18275e-08)
(2.18795e-07 2.33117e-05 1.22924e-06)
(3.87226e-08 2.36142e-05 1.44263e-06)
(4.74792e-09 2.36231e-05 1.44569e-06)
(1.82886e-09 2.35883e-05 1.42369e-06)
(2.14993e-09 2.36076e-05 1.4356e-06)
(9.43268e-10 2.35875e-05 1.42351e-06)
(2.17697e-09 2.35869e-05 1.42306e-06)
(3.25824e-10 2.36141e-05 1.44046e-06)
(-2.19367e-09 2.35985e-05 1.42892e-06)
(1.93699e-09 2.3571e-05 1.41073e-06)
(3.03845e-09 2.36103e-05 1.4381e-06)
(-1.12565e-09 2.36111e-05 1.43829e-06)
(1.35671e-10 2.36022e-05 1.43087e-06)
(1.15834e-09 2.36152e-05 1.44093e-06)
(-1.61899e-09 2.36109e-05 1.43809e-06)
(-2.86721e-10 2.36028e-05 1.43129e-06)
(-1.6149e-09 2.36118e-05 1.43911e-06)
(-1.73351e-09 2.3573e-05 1.41249e-06)
(1.48041e-09 2.35844e-05 1.42139e-06)
(1.01576e-10 2.36127e-05 1.43951e-06)
(-2.31457e-09 2.36151e-05 1.44108e-06)
(-2.22481e-09 2.35896e-05 1.42484e-06)
(-2.25227e-09 2.36103e-05 1.43831e-06)
(-7.40382e-09 2.35977e-05 1.42943e-06)
(-3.81735e-08 2.35956e-05 1.42937e-06)
(-2.1708e-07 2.33053e-05 1.22526e-06)
(-1.32478e-06 2.19591e-05 8.15603e-08)
(-1.14011e-05 2.08523e-05 3.13224e-06)
(1.10744e-05 1.25641e-05 -5.84687e-06)
(1.22254e-06 1.31887e-05 -9.25912e-06)
(1.4283e-07 1.40062e-05 -8.68763e-06)
(2.10668e-08 1.42108e-05 -8.60733e-06)
(5.21418e-09 1.42168e-05 -8.6082e-06)
(2.82947e-09 1.41993e-05 -8.60652e-06)
(2.22671e-09 1.42058e-05 -8.60992e-06)
(1.43527e-09 1.41996e-05 -8.6057e-06)
(1.23822e-09 1.41991e-05 -8.60597e-06)
(9.32913e-10 1.42096e-05 -8.60942e-06)
(4.37695e-10 1.42062e-05 -8.60728e-06)
(6.21975e-10 1.41956e-05 -8.60353e-06)
(4.87634e-10 1.42065e-05 -8.6098e-06)
(-1.02285e-10 1.42054e-05 -8.60885e-06)
(-4.24479e-11 1.42088e-05 -8.60723e-06)
(-2.12848e-11 1.42105e-05 -8.60937e-06)
(-2.9399e-10 1.42053e-05 -8.60889e-06)
(-1.81613e-10 1.42091e-05 -8.60717e-06)
(-4.10482e-10 1.42082e-05 -8.60949e-06)
(-6.92018e-10 1.4197e-05 -8.60349e-06)
(-9.41671e-10 1.41976e-05 -8.60546e-06)
(-1.22426e-09 1.4208e-05 -8.61013e-06)
(-1.57309e-09 1.42104e-05 -8.60937e-06)
(-1.9658e-09 1.42006e-05 -8.60581e-06)
(-2.61815e-09 1.42063e-05 -8.61018e-06)
(-5.41233e-09 1.42075e-05 -8.60441e-06)
(-2.10987e-08 1.42053e-05 -8.60522e-06)
(-1.42871e-07 1.39996e-05 -8.68765e-06)
(-1.22267e-06 1.31884e-05 -9.2591e-06)
(-1.10744e-05 1.25629e-05 -5.84713e-06)
(1.11453e-05 7.77721e-06 -7.41055e-06)
(1.2185e-06 8.20003e-06 -1.09328e-05)
(1.29752e-07 8.74719e-06 -1.04557e-05)
(1.55228e-08 8.89419e-06 -1.04013e-05)
(5.3589e-09 8.90012e-06 -1.04033e-05)
(3.16953e-09 8.89469e-06 -1.04005e-05)
(2.23922e-09 8.89171e-06 -1.04036e-05)
(1.82447e-09 8.89701e-06 -1.04005e-05)
(7.14768e-10 8.89633e-06 -1.04008e-05)
(8.2162e-10 8.89483e-06 -1.04035e-05)
(1.50295e-09 8.89237e-06 -1.04027e-05)
(3.15101e-10 8.89428e-06 -1.03991e-05)
(-7.89863e-10 8.89122e-06 -1.04021e-05)
(8.61527e-11 8.89511e-06 -1.04018e-05)
(1.20078e-10 8.89442e-06 -1.04029e-05)
(-5.41843e-10 8.89553e-06 -1.04036e-05)
(3.8433e-11 8.8951e-06 -1.04019e-05)
(1.54118e-10 8.89444e-06 -1.04029e-05)
(2.38426e-10 8.89396e-06 -1.04032e-05)
(-1.25138e-10 8.89522e-06 -1.03996e-05)
(-1.84281e-09 8.89592e-06 -1.03997e-05)
(-1.95084e-09 8.89211e-06 -1.04031e-05)
(-1.12566e-09 8.89554e-06 -1.04036e-05)
(-1.87046e-09 8.89688e-06 -1.04011e-05)
(-2.70751e-09 8.89065e-06 -1.04032e-05)
(-4.55137e-09 8.90252e-06 -1.04001e-05)
(-1.61882e-08 8.89048e-06 -1.04001e-05)
(-1.30402e-07 8.74564e-06 -1.04539e-05)
(-1.21854e-06 8.19983e-06 -1.09326e-05)
(-1.11451e-05 7.77558e-06 -7.41101e-06)
(1.15309e-05 4.89021e-06 -7.09789e-06)
(1.26093e-06 5.15979e-06 -1.0743e-05)
(1.42536e-07 5.5574e-06 -1.02383e-05)
(1.66733e-08 5.66388e-06 -1.018e-05)
(4.87894e-09 5.66961e-06 -1.01823e-05)
(3.13717e-09 5.66624e-06 -1.01821e-05)
(2.34428e-09 5.66252e-06 -1.01824e-05)
(1.70639e-09 5.66732e-06 -1.01835e-05)
(9.12523e-10 5.66569e-06 -1.01827e-05)
(9.84261e-10 5.66609e-06 -1.01823e-05)
(1.40676e-09 5.66422e-06 -1.01823e-05)
(1.32462e-10 5.66531e-06 -1.01824e-05)
(-5.96011e-10 5.66567e-06 -1.01811e-05)
(2.8349e-10 5.67102e-06 -1.01821e-05)
(1.19771e-11 5.66617e-06 -1.01822e-05)
(-4.41922e-10 5.66671e-06 -1.01825e-05)
(4.77452e-11 5.67097e-06 -1.01823e-05)
(1.22307e-10 5.66614e-06 -1.01822e-05)
(5.51611e-11 5.66547e-06 -1.01816e-05)
(-3.36977e-10 5.66615e-06 -1.01831e-05)
(-1.79116e-09 5.6666e-06 -1.01826e-05)
(-1.82673e-09 5.66572e-06 -1.01815e-05)
(-1.16707e-09 5.66684e-06 -1.01825e-05)
(-2.04683e-09 5.66584e-06 -1.01834e-05)
(-2.66895e-09 5.66344e-06 -1.01812e-05)
(-4.1417e-09 5.67096e-06 -1.01828e-05)
(-1.70176e-08 5.66141e-06 -1.01794e-05)
(-1.43209e-07 5.56055e-06 -1.02373e-05)
(-1.26118e-06 5.15973e-06 -1.07428e-05)
(-1.15302e-05 4.88777e-06 -7.09769e-06)
(1.20057e-05 3.08835e-06 -6.68525e-06)
(1.3198e-06 3.23567e-06 -1.04719e-05)
(1.6092e-07 3.53284e-06 -9.93139e-06)
(1.98691e-08 3.6101e-06 -9.86562e-06)
(4.68373e-09 3.6148e-06 -9.86755e-06)
(2.78537e-09 3.61725e-06 -9.86871e-06)
(2.36005e-09 3.61104e-06 -9.86823e-06)
(1.60036e-09 3.61406e-06 -9.86904e-06)
(1.09402e-09 3.61414e-06 -9.86856e-06)
(1.20673e-09 3.61289e-06 -9.868e-06)
(1.13048e-09 3.6111e-06 -9.86792e-06)
(2.26001e-10 3.61241e-06 -9.86838e-06)
(-3.46251e-10 3.61537e-06 -9.86859e-06)
(2.62469e-10 3.61645e-06 -9.86939e-06)
(5.33871e-11 3.61344e-06 -9.86813e-06)
(-4.09462e-10 3.61342e-06 -9.8685e-06)
(-8.88406e-12 3.61634e-06 -9.8695e-06)
(1.25316e-10 3.61342e-06 -9.86814e-06)
(-1.81402e-10 3.61244e-06 -9.86737e-06)
(-5.51175e-10 3.61311e-06 -9.86886e-06)
(-1.4586e-09 3.61357e-06 -9.86843e-06)
(-1.57756e-09 3.61482e-06 -9.86807e-06)
(-1.48613e-09 3.61393e-06 -9.86835e-06)
(-2.21467e-09 3.61402e-06 -9.86894e-06)
(-2.43607e-09 3.61409e-06 -9.86815e-06)
(-4.09343e-09 3.61619e-06 -9.86821e-06)
(-2.01567e-08 3.60821e-06 -9.8653e-06)
(-1.61402e-07 3.53447e-06 -9.93218e-06)
(-1.32015e-06 3.23567e-06 -1.04717e-05)
(-1.20042e-05 3.08799e-06 -6.68499e-06)
(1.24204e-05 1.94915e-06 -6.45406e-06)
(1.37756e-06 2.01606e-06 -1.03624e-05)
(1.77646e-07 2.23317e-06 -9.79613e-06)
(2.32967e-08 2.29229e-06 -9.72609e-06)
(4.8867e-09 2.29788e-06 -9.72806e-06)
(2.6281e-09 2.30039e-06 -9.73019e-06)
(2.22667e-09 2.2966e-06 -9.72911e-06)
(1.68222e-09 2.29639e-06 -9.72913e-06)
(1.10258e-09 2.29826e-06 -9.7294e-06)
(1.00295e-09 2.29478e-06 -9.72863e-06)
(9.52153e-10 2.29533e-06 -9.72876e-06)
(3.37635e-10 2.29433e-06 -9.72837e-06)
(-9.25924e-11 2.29604e-06 -9.72985e-06)
(3.46183e-10 2.29777e-06 -9.72936e-06)
(4.744e-11 2.2959e-06 -9.72869e-06)
(-3.45709e-10 2.29507e-06 -9.72874e-06)
(-4.12617e-11 2.29764e-06 -9.7294e-06)
(-1.71832e-11 2.29593e-06 -9.72874e-06)
(-3.41215e-10 2.29422e-06 -9.72809e-06)
(-5.90005e-10 2.29532e-06 -9.72914e-06)
(-1.39949e-09 2.29571e-06 -9.72866e-06)
(-1.39685e-09 2.29773e-06 -9.72979e-06)
(-1.3147e-09 2.29636e-06 -9.72897e-06)
(-2.34544e-09 2.29741e-06 -9.72891e-06)
(-2.43733e-09 2.29812e-06 -9.73023e-06)
(-4.24464e-09 2.29727e-06 -9.72834e-06)
(-2.37215e-08 2.29004e-06 -9.72518e-06)
(-1.77931e-07 2.23404e-06 -9.79686e-06)
(-1.37772e-06 2.01608e-06 -1.03621e-05)
(-1.24185e-05 1.95097e-06 -6.45423e-06)
(1.27246e-05 1.22831e-06 -6.34375e-06)
(1.42544e-06 1.25135e-06 -1.03402e-05)
(1.90978e-07 1.40759e-06 -9.75746e-06)
(2.65867e-08 1.4511e-06 -9.68503e-06)
(5.16383e-09 1.45731e-06 -9.68684e-06)
(2.37234e-09 1.45742e-06 -9.68893e-06)
(2.13036e-09 1.45723e-06 -9.68871e-06)
(1.67623e-09 1.45491e-06 -9.68797e-06)
(9.70444e-10 1.456e-06 -9.68861e-06)
(1.02726e-09 1.45476e-06 -9.68815e-06)
(7.83871e-10 1.45573e-06 -9.68806e-06)
(1.20191e-10 1.45404e-06 -9.68805e-06)
(2.56949e-10 1.45464e-06 -9.68841e-06)
(5.19474e-10 1.45568e-06 -9.68794e-06)
(-8.6554e-11 1.45446e-06 -9.68772e-06)
(-2.62661e-10 1.45477e-06 -9.68798e-06)
(3.64907e-11 1.45556e-06 -9.68795e-06)
(-3.25266e-10 1.45452e-06 -9.68776e-06)
(-4.56488e-10 1.45387e-06 -9.6882e-06)
(-4.90675e-10 1.45333e-06 -9.68776e-06)
(-1.15161e-09 1.45339e-06 -9.68757e-06)
(-1.20603e-09 1.45716e-06 -9.68859e-06)
(-1.53159e-09 1.45494e-06 -9.688e-06)
(-2.38759e-09 1.45624e-06 -9.68864e-06)
(-2.29444e-09 1.45747e-06 -9.68944e-06)
(-4.68049e-09 1.4546e-06 -9.68689e-06)
(-2.68095e-08 1.44979e-06 -9.6847e-06)
(-1.91041e-07 1.40809e-06 -9.75753e-06)
(-1.42559e-06 1.25137e-06 -1.03398e-05)
(-1.27233e-05 1.22961e-06 -6.34445e-06)
(1.29256e-05 7.73065e-07 -6.28827e-06)
(1.46124e-06 7.76244e-07 -1.03426e-05)
(2.01124e-07 8.865e-07 -9.74942e-06)
(2.88979e-08 9.17285e-07 -9.67564e-06)
(5.43366e-09 9.21874e-07 -9.67765e-06)
(2.37656e-09 9.22098e-07 -9.67887e-06)
(2.00997e-09 9.23112e-07 -9.67949e-06)
(1.56021e-09 9.20592e-07 -9.67859e-06)
(1.06558e-09 9.21182e-07 -9.67881e-06)
(1.002e-09 9.21898e-07 -9.67874e-06)
(6.2425e-10 9.21113e-07 -9.67895e-06)
(8.91305e-11 9.20742e-07 -9.6788e-06)
(3.48572e-10 9.22351e-07 -9.67915e-06)
(5.21601e-10 9.21052e-07 -9.67845e-06)
(-1.15211e-11 9.20145e-07 -9.67849e-06)
(-1.82311e-10 9.21778e-07 -9.67861e-06)
(-9.57314e-11 9.20944e-07 -9.67848e-06)
(-3.99115e-10 9.20256e-07 -9.67845e-06)
(-6.19326e-10 9.20415e-07 -9.67902e-06)
(-7.26163e-10 9.2012e-07 -9.67878e-06)
(-8.82188e-10 9.19589e-07 -9.67883e-06)
(-9.09615e-10 9.21932e-07 -9.67916e-06)
(-1.48204e-09 9.20665e-07 -9.67865e-06)
(-2.31148e-09 9.22719e-07 -9.67915e-06)
(-2.47313e-09 9.24038e-07 -9.67996e-06)
(-5.05568e-09 9.20979e-07 -9.67778e-06)
(-2.88563e-08 9.16619e-07 -9.67589e-06)
(-2.01114e-07 8.86652e-07 -9.74919e-06)
(-1.46143e-06 7.76119e-07 -1.0342e-05)
(-1.2925e-05 7.73966e-07 -6.28868e-06)
(1.30502e-05 4.85806e-07 -6.25677e-06)
(1.48575e-06 4.82076e-07 -1.03471e-05)
(2.0871e-07 5.56994e-07 -9.74746e-06)
(3.06405e-08 5.79374e-07 -9.67277e-06)
(5.65459e-09 5.8271e-07 -9.67478e-06)
(2.40963e-09 5.83e-07 -9.67572e-06)
(1.91311e-09 5.83571e-07 -9.67639e-06)
(1.50279e-09 5.82109e-07 -9.67574e-06)
(1.12373e-09 5.82435e-07 -9.67574e-06)
(9.69609e-10 5.82965e-07 -9.67571e-06)
(4.20498e-10 5.82433e-07 -9.67577e-06)
(2.45423e-10 5.82847e-07 -9.67646e-06)
(5.0674e-10 5.84334e-07 -9.67631e-06)
(3.27379e-10 5.82425e-07 -9.67559e-06)
(1.74828e-11 5.81552e-07 -9.67582e-06)
(-1.06347e-10 5.82802e-07 -9.67576e-06)
(-1.80841e-10 5.82336e-07 -9.67564e-06)
(-5.7159e-10 5.81806e-07 -9.67569e-06)
(-5.46854e-10 5.81996e-07 -9.67631e-06)
(-6.58403e-10 5.82712e-07 -9.67609e-06)
(-8.52087e-10 5.83238e-07 -9.67651e-06)
(-8.03392e-10 5.82925e-07 -9.67587e-06)
(-1.45003e-09 5.8221e-07 -9.67577e-06)
(-2.07505e-09 5.83454e-07 -9.67624e-06)
(-2.4137e-09 5.85251e-07 -9.67656e-06)
(-5.6629e-09 5.83413e-07 -9.6749e-06)
(-3.0673e-08 5.78767e-07 -9.67362e-06)
(-2.08517e-07 5.56929e-07 -9.7472e-06)
(-1.48591e-06 4.81789e-07 -1.03468e-05)
(-1.305e-05 4.86536e-07 -6.25686e-06)
(1.31244e-05 3.04274e-07 -6.23756e-06)
(1.5016e-06 2.99594e-07 -1.03495e-05)
(2.14232e-07 3.49386e-07 -9.7456e-06)
(3.19547e-08 3.6531e-07 -9.6707e-06)
(5.85908e-09 3.67543e-07 -9.67274e-06)
(2.45144e-09 3.67971e-07 -9.6736e-06)
(1.84709e-09 3.68292e-07 -9.67388e-06)
(1.45338e-09 3.67465e-07 -9.6737e-06)
(1.1275e-09 3.67657e-07 -9.67366e-06)
(9.40743e-10 3.67919e-07 -9.67343e-06)
(4.92202e-10 3.6768e-07 -9.67357e-06)
(3.3942e-10 3.68849e-07 -9.67407e-06)
(4.31934e-10 3.68829e-07 -9.67404e-06)
(1.66479e-10 3.67698e-07 -9.67354e-06)
(3.54921e-12 3.6649e-07 -9.6737e-06)
(-1.45842e-11 3.67831e-07 -9.67365e-06)
(-2.18134e-10 3.67658e-07 -9.67361e-06)
(-6.27895e-10 3.67108e-07 -9.67385e-06)
(-5.24948e-10 3.68899e-07 -9.67441e-06)
(-5.01162e-10 3.6724e-07 -9.67406e-06)
(-7.75327e-10 3.68972e-07 -9.67458e-06)
(-8.96567e-10 3.67954e-07 -9.67364e-06)
(-1.4264e-09 3.67586e-07 -9.67369e-06)
(-1.92689e-09 3.68281e-07 -9.67383e-06)
(-2.40308e-09 3.69261e-07 -9.67407e-06)
(-6.01906e-09 3.68177e-07 -9.67295e-06)
(-3.20441e-08 3.66052e-07 -9.67172e-06)
(-2.13984e-07 3.49166e-07 -9.74545e-06)
(-1.5017e-06 2.99365e-07 -1.03494e-05)
(-1.31246e-05 3.0509e-07 -6.23736e-06)
(1.31677e-05 1.88932e-07 -6.22535e-06)
(1.51147e-06 1.85655e-07 -1.03504e-05)
(2.18129e-07 2.18087e-07 -9.74406e-06)
(3.28808e-08 2.29131e-07 -9.66897e-06)
(5.99092e-09 2.30059e-07 -9.6711e-06)
(2.54288e-09 2.30976e-07 -9.6719e-06)
(1.8076e-09 2.312e-07 -9.67201e-06)
(1.40897e-09 2.30742e-07 -9.672e-06)
(1.10293e-09 2.30884e-07 -9.67199e-06)
(9.10895e-10 2.31037e-07 -9.67188e-06)
(5.4219e-10 2.3084e-07 -9.67185e-06)
(4.06591e-10 2.31303e-07 -9.67244e-06)
(4.02348e-10 2.31552e-07 -9.67195e-06)
(-3.1003e-11 2.3094e-07 -9.67184e-06)
(7.83201e-13 2.30595e-07 -9.67239e-06)
(1.41849e-10 2.31067e-07 -9.67189e-06)
(-2.74822e-10 2.30945e-07 -9.67188e-06)
(-4.96583e-10 2.30028e-07 -9.67208e-06)
(-5.69513e-10 2.32613e-07 -9.67254e-06)
(-6.07454e-10 2.31062e-07 -9.67251e-06)
(-6.38669e-10 2.31061e-07 -9.67253e-06)
(-9.14465e-10 2.30924e-07 -9.67195e-06)
(-1.40092e-09 2.30876e-07 -9.67197e-06)
(-1.83478e-09 2.31226e-07 -9.67196e-06)
(-2.41578e-09 2.31738e-07 -9.67193e-06)
(-6.16019e-09 2.30997e-07 -9.67103e-06)
(-3.30695e-08 2.29496e-07 -9.6698e-06)
(-2.17976e-07 2.17641e-07 -9.74412e-06)
(-1.51148e-06 1.85496e-07 -1.03504e-05)
(-1.31682e-05 1.90178e-07 -6.22528e-06)
(1.31927e-05 1.16548e-07 -6.21831e-06)
(1.51753e-06 1.13618e-07 -1.03507e-05)
(2.20784e-07 1.34217e-07 -9.74299e-06)
(3.34831e-08 1.41652e-07 -9.66771e-06)
(6.1006e-09 1.42745e-07 -9.67027e-06)
(2.68772e-09 1.42764e-07 -9.67077e-06)
(1.79195e-09 1.42992e-07 -9.67077e-06)
(1.37711e-09 1.4276e-07 -9.67079e-06)
(1.09506e-09 1.42883e-07 -9.67079e-06)
(8.84418e-10 1.43052e-07 -9.67067e-06)
(5.29287e-10 1.42706e-07 -9.67071e-06)
(4.59453e-10 1.42475e-07 -9.67087e-06)
(4.21109e-10 1.43231e-07 -9.67058e-06)
(3.95479e-12 1.42931e-07 -9.67063e-06)
(9.33884e-12 1.43288e-07 -9.67112e-06)
(8.89244e-11 1.43032e-07 -9.67057e-06)
(-3.98948e-10 1.43002e-07 -9.67056e-06)
(-4.2225e-10 1.42915e-07 -9.67118e-06)
(-3.54472e-10 1.4391e-07 -9.67109e-06)
(-7.46347e-10 1.4362e-07 -9.67114e-06)
(-7.36213e-10 1.43484e-07 -9.67124e-06)
(-8.41531e-10 1.4259e-07 -9.67089e-06)
(-1.36787e-09 1.42902e-07 -9.67073e-06)
(-1.78179e-09 1.43015e-07 -9.6707e-06)
(-2.44699e-09 1.43296e-07 -9.67058e-06)
(-6.41401e-09 1.42589e-07 -9.66986e-06)
(-3.38655e-08 1.41535e-07 -9.66858e-06)
(-2.20575e-07 1.33327e-07 -9.74299e-06)
(-1.5173e-06 1.13517e-07 -1.03507e-05)
(-1.31932e-05 1.16789e-07 -6.21791e-06)
(1.32074e-05 6.94882e-08 -6.21402e-06)
(1.52084e-06 6.6903e-08 -1.03509e-05)
(2.2251e-07 7.94021e-08 -9.7423e-06)
(3.40882e-08 8.41461e-08 -9.66684e-06)
(6.15771e-09 8.52093e-08 -9.66936e-06)
(2.61661e-09 8.45293e-08 -9.67019e-06)
(1.80051e-09 8.49155e-08 -9.67e-06)
(1.35974e-09 8.4826e-08 -9.67003e-06)
(1.09715e-09 8.49248e-08 -9.67002e-06)
(8.50643e-10 8.49848e-08 -9.66981e-06)
(4.31215e-10 8.45364e-08 -9.67015e-06)
(5.122e-10 8.51174e-08 -9.67032e-06)
(5.15845e-10 8.51275e-08 -9.66979e-06)
(-2.82914e-11 8.49543e-08 -9.66987e-06)
(1.44639e-11 8.44132e-08 -9.67034e-06)
(1.19124e-10 8.48873e-08 -9.66968e-06)
(-2.93711e-10 8.50047e-08 -9.66966e-06)
(-3.75178e-10 8.58094e-08 -9.67014e-06)
(-4.40853e-10 8.55396e-08 -9.6699e-06)
(-6.58754e-10 8.47056e-08 -9.67031e-06)
(-7.91266e-10 8.61463e-08 -9.67002e-06)
(-9.71488e-10 8.40905e-08 -9.67008e-06)
(-1.32072e-09 8.49744e-08 -9.66988e-06)
(-1.75689e-09 8.48957e-08 -9.66995e-06)
(-2.50318e-09 8.5096e-08 -9.6698e-06)
(-6.51172e-09 8.40749e-08 -9.66901e-06)
(-3.44472e-08 8.52208e-08 -9.66756e-06)
(-2.22375e-07 7.93833e-08 -9.74263e-06)
(-1.52059e-06 6.67949e-08 -1.03508e-05)
(-1.32074e-05 6.8988e-08 -6.2136e-06)
(1.32153e-05 3.56511e-08 -6.21158e-06)
(1.52275e-06 3.49863e-08 -1.0351e-05)
(2.23542e-07 4.16956e-08 -9.74192e-06)
(3.43979e-08 4.42358e-08 -9.66627e-06)
(6.12396e-09 4.38398e-08 -9.66923e-06)
(2.66253e-09 4.38721e-08 -9.66972e-06)
(1.84976e-09 4.46954e-08 -9.66957e-06)
(1.35366e-09 4.46864e-08 -9.66961e-06)
(1.07737e-09 4.47549e-08 -9.66958e-06)
(7.83113e-10 4.46923e-08 -9.66952e-06)
(5.62236e-10 4.39291e-08 -9.66968e-06)
(5.8445e-10 4.56145e-08 -9.66961e-06)
(4.03852e-10 4.48994e-08 -9.66931e-06)
(-1.51719e-10 4.47877e-08 -9.66944e-06)
(-1.6603e-11 4.47486e-08 -9.67012e-06)
(2.23936e-10 4.44947e-08 -9.66948e-06)
(-2.07248e-10 4.47684e-08 -9.66932e-06)
(-3.22162e-10 4.51673e-08 -9.66973e-06)
(-5.64948e-10 4.50409e-08 -9.66925e-06)
(-6.20169e-10 4.50616e-08 -9.67e-06)
(-8.31347e-10 4.53407e-08 -9.66949e-06)
(-1.03879e-09 4.4611e-08 -9.67006e-06)
(-1.21923e-09 4.47536e-08 -9.66934e-06)
(-1.74839e-09 4.45682e-08 -9.66961e-06)
(-2.61734e-09 4.48199e-08 -9.66936e-06)
(-6.43035e-09 4.46049e-08 -9.66892e-06)
(-3.44999e-08 4.55655e-08 -9.66679e-06)
(-2.23568e-07 4.25555e-08 -9.74203e-06)
(-1.52257e-06 3.47649e-08 -1.0351e-05)
(-1.32154e-05 3.62157e-08 -6.21122e-06)
(1.32188e-05 1.139e-08 -6.2105e-06)
(1.52374e-06 1.08465e-08 -1.0351e-05)
(2.24001e-07 1.29415e-08 -9.74177e-06)
(3.43737e-08 1.363e-08 -9.66621e-06)
(6.05733e-09 1.32332e-08 -9.66917e-06)
(2.8152e-09 1.38902e-08 -9.66985e-06)
(1.9659e-09 1.38729e-08 -9.66939e-06)
(1.35502e-09 1.38945e-08 -9.66942e-06)
(1.06413e-09 1.3929e-08 -9.66939e-06)
(6.59177e-10 1.39048e-08 -9.6694e-06)
(6.14881e-10 1.3918e-08 -9.66981e-06)
(7.08995e-10 1.41799e-08 -9.66954e-06)
(3.65809e-10 1.3892e-08 -9.66902e-06)
(-7.15455e-11 1.39705e-08 -9.66925e-06)
(-5.69651e-11 1.44604e-08 -9.66977e-06)
(1.35371e-10 1.35014e-08 -9.66959e-06)
(-1.4637e-10 1.38948e-08 -9.66908e-06)
(-3.07665e-10 1.40432e-08 -9.66933e-06)
(-4.62292e-10 1.40101e-08 -9.66917e-06)
(-6.02748e-10 1.49051e-08 -9.66944e-06)
(-8.62438e-10 1.41477e-08 -9.66924e-06)
(-1.06674e-09 1.43934e-08 -9.66977e-06)
(-1.31135e-09 1.38726e-08 -9.66928e-06)
(-1.72612e-09 1.35222e-08 -9.66961e-06)
(-2.50975e-09 1.39352e-08 -9.66916e-06)
(-6.40294e-09 1.43963e-08 -9.66856e-06)
(-3.46736e-08 1.41625e-08 -9.66651e-06)
(-2.24185e-07 1.33905e-08 -9.74192e-06)
(-1.52347e-06 1.03188e-08 -1.03513e-05)
(-1.32189e-05 1.12448e-08 -6.21021e-06)
(1.3219e-05 -1.03614e-08 -6.21031e-06)
(1.52356e-06 -1.08959e-08 -1.0351e-05)
(2.23981e-07 -1.30503e-08 -9.74175e-06)
(3.43946e-08 -1.39796e-08 -9.66627e-06)
(6.19973e-09 -1.31127e-08 -9.66909e-06)
(2.79012e-09 -1.3142e-08 -9.66954e-06)
(1.85528e-09 -1.40344e-08 -9.66939e-06)
(1.35868e-09 -1.39963e-08 -9.6694e-06)
(1.06428e-09 -1.39767e-08 -9.6694e-06)
(7.61489e-10 -1.39635e-08 -9.66942e-06)
(6.01929e-10 -1.31829e-08 -9.66952e-06)
(5.74103e-10 -1.42201e-08 -9.66957e-06)
(3.73913e-10 -1.42588e-08 -9.66923e-06)
(-3.79591e-11 -1.39431e-08 -9.66925e-06)
(-1.12756e-10 -1.43297e-08 -9.66976e-06)
(1.0914e-10 -1.47813e-08 -9.66957e-06)
(-9.06235e-11 -1.40917e-08 -9.66922e-06)
(-2.71907e-10 -1.4122e-08 -9.66933e-06)
(-4.05017e-10 -1.39208e-08 -9.66919e-06)
(-6.05105e-10 -1.35327e-08 -9.66949e-06)
(-9.13589e-10 -1.39252e-08 -9.66924e-06)
(-1.07746e-09 -1.43879e-08 -9.66978e-06)
(-1.35155e-09 -1.40007e-08 -9.66934e-06)
(-1.72189e-09 -1.48053e-08 -9.66957e-06)
(-2.45423e-09 -1.40409e-08 -9.66917e-06)
(-6.42055e-09 -1.44974e-08 -9.66844e-06)
(-3.46708e-08 -1.41458e-08 -9.66651e-06)
(-2.2438e-07 -1.27671e-08 -9.74171e-06)
(-1.52354e-06 -1.19848e-08 -1.03511e-05)
(-1.32186e-05 -1.12874e-08 -6.21025e-06)
(1.32156e-05 -3.61744e-08 -6.21172e-06)
(1.52265e-06 -3.50729e-08 -1.0351e-05)
(2.2349e-07 -4.18663e-08 -9.74192e-06)
(3.44635e-08 -4.4759e-08 -9.66654e-06)
(6.27301e-09 -4.38488e-08 -9.66896e-06)
(2.60524e-09 -4.43816e-08 -9.66977e-06)
(1.79609e-09 -4.48547e-08 -9.6696e-06)
(1.36858e-09 -4.48065e-08 -9.66959e-06)
(1.08171e-09 -4.4768e-08 -9.66959e-06)
(8.10271e-10 -4.47375e-08 -9.66955e-06)
(5.2692e-10 -4.44489e-08 -9.66976e-06)
(4.81221e-10 -4.56273e-08 -9.66968e-06)
(4.31757e-10 -4.5302e-08 -9.6697e-06)
(-7.0019e-11 -4.47284e-08 -9.66939e-06)
(-2.10091e-10 -4.45032e-08 -9.67004e-06)
(1.66575e-10 -4.4662e-08 -9.66996e-06)
(-2.11817e-11 -4.48867e-08 -9.66947e-06)
(-2.34983e-10 -4.52617e-08 -9.66973e-06)
(-3.56773e-10 -4.48402e-08 -9.66921e-06)
(-6.24391e-10 -4.46169e-08 -9.6695e-06)
(-1.01837e-09 -4.48727e-08 -9.66943e-06)
(-1.07755e-09 -4.45957e-08 -9.67006e-06)
(-1.37149e-09 -4.47627e-08 -9.66954e-06)
(-1.73432e-09 -4.47605e-08 -9.67007e-06)
(-2.45091e-09 -4.48566e-08 -9.66939e-06)
(-6.43048e-09 -4.48214e-08 -9.6689e-06)
(-3.44448e-08 -4.5474e-08 -9.66673e-06)
(-2.24154e-07 -4.15184e-08 -9.74172e-06)
(-1.52281e-06 -3.49955e-08 -1.03511e-05)
(-1.32145e-05 -3.62251e-08 -6.21132e-06)
(1.32075e-05 -6.9807e-08 -6.2138e-06)
(1.52078e-06 -6.69657e-08 -1.03509e-05)
(2.22413e-07 -7.96817e-08 -9.7424e-06)
(3.41796e-08 -8.50888e-08 -9.66708e-06)
(6.31267e-09 -8.52727e-08 -9.66919e-06)
(2.56406e-09 -8.47952e-08 -9.67e-06)
(1.77015e-09 -8.50146e-08 -9.67005e-06)
(1.38144e-09 -8.49551e-08 -9.67004e-06)
(1.1217e-09 -8.49053e-08 -9.67002e-06)
(8.35353e-10 -8.494e-08 -9.66979e-06)
(3.67223e-10 -8.48224e-08 -9.67001e-06)
(3.88423e-10 -8.50571e-08 -9.6704e-06)
(5.61511e-10 -8.58806e-08 -9.67013e-06)
(1.34666e-10 -8.49729e-08 -9.66969e-06)
(-7.23654e-11 -8.39359e-08 -9.67007e-06)
(1.85129e-11 -8.40349e-08 -9.66982e-06)
(-2.28653e-10 -8.50775e-08 -9.6699e-06)
(-2.26037e-10 -8.59142e-08 -9.67015e-06)
(-2.8408e-10 -8.51982e-08 -9.66964e-06)
(-6.28508e-10 -8.49199e-08 -9.66987e-06)
(-9.03031e-10 -8.52187e-08 -9.66986e-06)
(-1.05781e-09 -8.40769e-08 -9.67007e-06)
(-1.37975e-09 -8.48867e-08 -9.66996e-06)
(-1.74239e-09 -8.40722e-08 -9.67016e-06)
(-2.46204e-09 -8.49998e-08 -9.66985e-06)
(-6.48924e-09 -8.4244e-08 -9.66904e-06)
(-3.42718e-08 -8.51593e-08 -9.66732e-06)
(-2.22767e-07 -7.92904e-08 -9.74187e-06)
(-1.52091e-06 -6.57657e-08 -1.03509e-05)
(-1.32068e-05 -6.89711e-08 -6.21364e-06)
(1.31927e-05 -1.16735e-07 -6.2182e-06)
(1.51748e-06 -1.13611e-07 -1.03508e-05)
(2.20602e-07 -1.34667e-07 -9.74332e-06)
(3.36111e-08 -1.41735e-07 -9.6682e-06)
(6.32665e-09 -1.42709e-07 -9.6702e-06)
(2.6526e-09 -1.42906e-07 -9.6707e-06)
(1.77333e-09 -1.42969e-07 -9.67085e-06)
(1.39786e-09 -1.42867e-07 -9.67082e-06)
(1.15629e-09 -1.42831e-07 -9.67078e-06)
(8.41563e-10 -1.42976e-07 -9.67043e-06)
(4.25568e-10 -1.42893e-07 -9.6707e-06)
(2.55473e-10 -1.42265e-07 -9.67085e-06)
(4.50874e-10 -1.42967e-07 -9.67115e-06)
(3.13761e-10 -1.42986e-07 -9.67057e-06)
(9.63959e-12 -1.42416e-07 -9.6709e-06)
(-5.63159e-11 -1.42609e-07 -9.6706e-06)
(-4.07357e-10 -1.4312e-07 -9.67068e-06)
(-2.39432e-10 -1.43013e-07 -9.6712e-06)
(-1.57052e-10 -1.43184e-07 -9.67062e-06)
(-6.23964e-10 -1.42946e-07 -9.67065e-06)
(-8.54046e-10 -1.43494e-07 -9.67075e-06)
(-1.0238e-09 -1.4262e-07 -9.67085e-06)
(-1.37765e-09 -1.42843e-07 -9.67073e-06)
(-1.75625e-09 -1.42446e-07 -9.67098e-06)
(-2.48039e-09 -1.42982e-07 -9.67063e-06)
(-6.40793e-09 -1.42703e-07 -9.66992e-06)
(-3.37688e-08 -1.41407e-07 -9.6684e-06)
(-2.20784e-07 -1.3412e-07 -9.7427e-06)
(-1.51746e-06 -1.12999e-07 -1.0351e-05)
(-1.3193e-05 -1.16775e-07 -6.2179e-06)
(1.31676e-05 -1.89047e-07 -6.22534e-06)
(1.5114e-06 -1.85558e-07 -1.03503e-05)
(2.18095e-07 -2.18833e-07 -9.7443e-06)
(3.30222e-08 -2.28382e-07 -9.66914e-06)
(6.06545e-09 -2.29939e-07 -9.67113e-06)
(2.53919e-09 -2.31056e-07 -9.6719e-06)
(1.79952e-09 -2.3097e-07 -9.67209e-06)
(1.41803e-09 -2.30801e-07 -9.67205e-06)
(1.18137e-09 -2.30785e-07 -9.67197e-06)
(8.30889e-10 -2.30981e-07 -9.67156e-06)
(4.23424e-10 -2.30995e-07 -9.67189e-06)
(3.50723e-10 -2.30839e-07 -9.67216e-06)
(4.0569e-10 -2.30164e-07 -9.67204e-06)
(2.371e-10 -2.30942e-07 -9.67186e-06)
(2.98185e-11 -2.30652e-07 -9.67197e-06)
(-9.99137e-11 -2.30846e-07 -9.67186e-06)
(-2.99979e-10 -2.31285e-07 -9.67201e-06)
(-2.35662e-10 -2.3013e-07 -9.67211e-06)
(-2.58301e-10 -2.3109e-07 -9.67196e-06)
(-6.56054e-10 -2.30969e-07 -9.67188e-06)
(-8.45035e-10 -2.32036e-07 -9.67232e-06)
(-9.65825e-10 -2.31028e-07 -9.67188e-06)
(-1.36156e-09 -2.30831e-07 -9.67195e-06)
(-1.77692e-09 -2.30608e-07 -9.67202e-06)
(-2.50793e-09 -2.31046e-07 -9.67184e-06)
(-6.16778e-09 -2.31061e-07 -9.6711e-06)
(-3.29989e-08 -2.28965e-07 -9.66936e-06)
(-2.18097e-07 -2.17803e-07 -9.74385e-06)
(-1.51158e-06 -1.85218e-07 -1.03505e-05)
(-1.31681e-05 -1.90189e-07 -6.22525e-06)
(1.31243e-05 -3.04348e-07 -6.23758e-06)
(1.50149e-06 -2.99603e-07 -1.0349e-05)
(2.14285e-07 -3.48965e-07 -9.74582e-06)
(3.21387e-08 -3.65023e-07 -9.67095e-06)
(5.83885e-09 -3.67215e-07 -9.67297e-06)
(2.50585e-09 -3.68032e-07 -9.67364e-06)
(1.85217e-09 -3.6766e-07 -9.67381e-06)
(1.43734e-09 -3.67459e-07 -9.67375e-06)
(1.19426e-09 -3.6747e-07 -9.67364e-06)
(8.05402e-10 -3.67665e-07 -9.6732e-06)
(3.93792e-10 -3.6786e-07 -9.67362e-06)
(3.86526e-10 -3.68013e-07 -9.67376e-06)
(3.93565e-10 -3.67438e-07 -9.67384e-06)
(2.15762e-10 -3.67684e-07 -9.67359e-06)
(4.1672e-11 -3.6745e-07 -9.67364e-06)
(-1.46246e-10 -3.67564e-07 -9.67363e-06)
(-2.41137e-10 -3.68354e-07 -9.67398e-06)
(-2.02184e-10 -3.67271e-07 -9.67391e-06)
(-3.02862e-10 -3.67737e-07 -9.67373e-06)
(-7.45334e-10 -3.67698e-07 -9.67358e-06)
(-8.68622e-10 -3.69683e-07 -9.67424e-06)
(-8.63163e-10 -3.68162e-07 -9.67356e-06)
(-1.32613e-09 -3.67523e-07 -9.67366e-06)
(-1.80929e-09 -3.67377e-07 -9.67365e-06)
(-2.55295e-09 -3.6793e-07 -9.67356e-06)
(-6.0339e-09 -3.6821e-07 -9.67302e-06)
(-3.19701e-08 -3.65141e-07 -9.67108e-06)
(-2.14097e-07 -3.48832e-07 -9.74527e-06)
(-1.50181e-06 -2.99202e-07 -1.03494e-05)
(-1.31247e-05 -3.05148e-07 -6.23734e-06)
(1.30501e-05 -4.85855e-07 -6.25679e-06)
(1.48579e-06 -4.82164e-07 -1.03468e-05)
(2.08769e-07 -5.55266e-07 -9.74693e-06)
(3.06309e-08 -5.79362e-07 -9.67284e-06)
(5.59444e-09 -5.82213e-07 -9.67488e-06)
(2.52522e-09 -5.83087e-07 -9.67587e-06)
(1.93975e-09 -5.82189e-07 -9.67577e-06)
(1.44279e-09 -5.82027e-07 -9.67578e-06)
(1.18619e-09 -5.82106e-07 -9.67566e-06)
(7.62636e-10 -5.82267e-07 -9.6753e-06)
(3.58284e-10 -5.8274e-07 -9.67586e-06)
(4.04893e-10 -5.83153e-07 -9.67599e-06)
(3.92687e-10 -5.82437e-07 -9.67578e-06)
(2.21238e-10 -5.82423e-07 -9.67564e-06)
(6.9418e-11 -5.8208e-07 -9.67569e-06)
(-2.20388e-10 -5.82125e-07 -9.67571e-06)
(-2.10856e-10 -5.83577e-07 -9.67595e-06)
(-1.19977e-10 -5.82079e-07 -9.6758e-06)
(-3.26135e-10 -5.82285e-07 -9.67584e-06)
(-9.25776e-10 -5.82315e-07 -9.67562e-06)
(-9.15635e-10 -5.84078e-07 -9.6764e-06)
(-6.83418e-10 -5.83313e-07 -9.67583e-06)
(-1.2735e-09 -5.82102e-07 -9.67573e-06)
(-1.86149e-09 -5.82001e-07 -9.67569e-06)
(-2.62178e-09 -5.82893e-07 -9.67577e-06)
(-5.72367e-09 -5.83461e-07 -9.67499e-06)
(-3.04857e-08 -5.7897e-07 -9.67303e-06)
(-2.08635e-07 -5.56027e-07 -9.74682e-06)
(-1.48603e-06 -4.81671e-07 -1.03469e-05)
(-1.30502e-05 -4.86667e-07 -6.25694e-06)
(1.29255e-05 -7.73091e-07 -6.28828e-06)
(1.46137e-06 -7.76267e-07 -1.03425e-05)
(2.01159e-07 -8.84894e-07 -9.74893e-06)
(2.87398e-08 -9.17581e-07 -9.67572e-06)
(5.3175e-09 -9.21045e-07 -9.6777e-06)
(2.59101e-09 -9.22289e-07 -9.67914e-06)
(2.0642e-09 -9.20651e-07 -9.67844e-06)
(1.4334e-09 -9.20438e-07 -9.67862e-06)
(1.14927e-09 -9.20647e-07 -9.67858e-06)
(6.96949e-10 -9.20579e-07 -9.67849e-06)
(3.33125e-10 -9.21616e-07 -9.67909e-06)
(4.20172e-10 -9.22336e-07 -9.67937e-06)
(3.83667e-10 -9.2131e-07 -9.67878e-06)
(2.41102e-10 -9.21106e-07 -9.67855e-06)
(1.22505e-10 -9.20537e-07 -9.67856e-06)
(-3.45952e-10 -9.20491e-07 -9.67855e-06)
(-1.95953e-10 -9.21155e-07 -9.6789e-06)
(4.13675e-11 -9.20584e-07 -9.67861e-06)
(-3.36041e-10 -9.20628e-07 -9.67871e-06)
(-9.49589e-10 -9.20746e-07 -9.67849e-06)
(-9.7314e-10 -9.20935e-07 -9.67917e-06)
(-6.7854e-10 -9.22586e-07 -9.67928e-06)
(-1.21137e-09 -9.20502e-07 -9.67859e-06)
(-1.93745e-09 -9.20441e-07 -9.67855e-06)
(-2.74251e-09 -9.21938e-07 -9.67905e-06)
(-5.487e-09 -9.21054e-07 -9.67785e-06)
(-2.85504e-08 -9.1792e-07 -9.67596e-06)
(-2.00984e-07 -8.84961e-07 -9.74889e-06)
(-1.46158e-06 -7.7577e-07 -1.03424e-05)
(-1.29252e-05 -7.74203e-07 -6.28885e-06)
(1.27244e-05 -1.22831e-06 -6.34375e-06)
(1.42565e-06 -1.25136e-06 -1.03402e-05)
(1.90868e-07 -1.40763e-06 -9.75732e-06)
(2.63742e-08 -1.45185e-06 -9.68532e-06)
(5.00501e-09 -1.45582e-06 -9.6871e-06)
(2.67022e-09 -1.45778e-06 -9.68864e-06)
(2.20759e-09 -1.45487e-06 -9.68801e-06)
(1.46112e-09 -1.45473e-06 -9.68801e-06)
(1.1255e-09 -1.45517e-06 -9.68823e-06)
(5.95119e-10 -1.4546e-06 -9.68799e-06)
(2.76564e-10 -1.45651e-06 -9.68826e-06)
(4.40517e-10 -1.45769e-06 -9.68872e-06)
(3.646e-10 -1.45623e-06 -9.68852e-06)
(2.65289e-10 -1.4558e-06 -9.68807e-06)
(1.96051e-10 -1.4549e-06 -9.68789e-06)
(-2.3824e-10 -1.45476e-06 -9.68788e-06)
(-1.75377e-10 -1.45481e-06 -9.68815e-06)
(1.49324e-11 -1.45486e-06 -9.68797e-06)
(-3.37311e-10 -1.45472e-06 -9.68783e-06)
(-8.37266e-10 -1.45507e-06 -9.68789e-06)
(-1.04603e-09 -1.45548e-06 -9.68875e-06)
(-8.45948e-10 -1.45823e-06 -9.68891e-06)
(-1.13691e-09 -1.45474e-06 -9.68792e-06)
(-2.03161e-09 -1.45474e-06 -9.68793e-06)
(-2.66515e-09 -1.45718e-06 -9.6885e-06)
(-5.27556e-09 -1.45467e-06 -9.68676e-06)
(-2.63336e-08 -1.45072e-06 -9.68516e-06)
(-1.9065e-07 -1.40727e-06 -9.75703e-06)
(-1.42589e-06 -1.25078e-06 -1.03399e-05)
(-1.27236e-05 -1.22988e-06 -6.34389e-06)
(1.24201e-05 -1.94913e-06 -6.45407e-06)
(1.37759e-06 -2.01608e-06 -1.03624e-05)
(1.77476e-07 -2.23438e-06 -9.79662e-06)
(2.34105e-08 -2.29375e-06 -9.72664e-06)
(4.66987e-09 -2.2979e-06 -9.72815e-06)
(2.81566e-09 -2.29871e-06 -9.73013e-06)
(2.41915e-09 -2.29599e-06 -9.72907e-06)
(1.50818e-09 -2.29621e-06 -9.7292e-06)
(1.11604e-09 -2.29712e-06 -9.72991e-06)
(3.90195e-10 -2.29568e-06 -9.72877e-06)
(1.2328e-10 -2.29644e-06 -9.72899e-06)
(4.92438e-10 -2.29835e-06 -9.72877e-06)
(3.92524e-10 -2.2985e-06 -9.72919e-06)
(2.9403e-10 -2.29794e-06 -9.72954e-06)
(2.68129e-10 -2.2965e-06 -9.72891e-06)
(-1.588e-10 -2.29627e-06 -9.72888e-06)
(-1.33721e-10 -2.29756e-06 -9.73001e-06)