/*--------------------------------*- C++ -*----------------------------------*\
| =========                 |                                                 |
| \\      /  F ield         | OpenFOAM: The Open Source CFD Toolbox           |
|  \\    /   O peration     | Version:  2106                                  |
|   \\  /    A nd           | Website:  www.openfoam.com                      |
|    \\/     M anipulation  |                                                 |
\*---------------------------------------------------------------------------*/
FoamFile
{
    version     2.0;
    format      ascii;
    arch        "LSB;label=32;scalar=64";
    class       volSymmTensorField;
    location    "713";
    object      epsilon;
}
// * * * * * * * * * * * * * * * * * * * * * * * * * * * * * * * * * * * * * //

dimensions      [0 0 0 0 0 0 0];

internalField   nonuniform List<symmTensor> 
9000
(
(-0.0855809 -0.00026352 0.0481623 -0.147116 0.0614072 -0.0253722)
(-0.0167733 0.00053781 0.00938399 -0.156475 0.0651285 -0.069752)
(-0.00192931 0.000335746 0.00256593 -0.166385 0.0691562 -0.0595173)
(-0.00032107 5.06297e-05 0.000451895 -0.167997 0.0700449 -0.0573959)
(-5.53406e-05 -7.94737e-06 4.00537e-05 -0.168078 0.0700714 -0.0574083)
(-3.89698e-06 -2.05519e-06 1.79022e-05 -0.167896 0.0698598 -0.0576824)
(-1.32839e-06 -3.43169e-08 2.56746e-05 -0.16802 0.0700232 -0.0575677)
(4.05569e-08 -5.91587e-06 7.83927e-06 -0.167889 0.0698609 -0.0576825)
(-9.26165e-07 6.45167e-06 3.13386e-05 -0.167887 0.0698576 -0.0576899)
(-6.55596e-06 6.6316e-06 -7.39918e-06 -0.168061 0.0700451 -0.0574715)
(2.41675e-06 -6.26244e-06 -4.89957e-05 -0.167943 0.0699279 -0.0575982)
(7.84817e-06 -5.38269e-07 3.97313e-05 -0.167761 0.0697375 -0.0578377)
(-4.59396e-06 5.45118e-06 5.88955e-05 -0.16805 0.0700333 -0.0574993)
(-4.35416e-06 8.28162e-07 -3.02005e-05 -0.168067 0.0700422 -0.0574879)
(3.42598e-06 8.62424e-07 1.85451e-06 -0.167955 0.0699369 -0.0575821)
(-2.632e-06 -1.18755e-06 3.04737e-05 -0.168063 0.0700469 -0.0574731)
(-2.1676e-06 3.38164e-07 -3.63133e-05 -0.168065 0.0700412 -0.0574929)
(6.13854e-09 7.56447e-07 -3.10469e-06 -0.167958 0.069939 -0.0575735)
(-2.17019e-06 -6.66431e-06 -2.47728e-05 -0.168052 0.0700386 -0.0574876)
(4.64297e-06 -6.37494e-06 -2.66534e-05 -0.167773 0.0697468 -0.057802)
(2.75264e-06 5.81785e-06 3.96554e-05 -0.167874 0.0698509 -0.0577151)
(-5.69248e-06 6.53575e-06 6.69969e-06 -0.16806 0.0700388 -0.057486)
(-3.48957e-06 -5.88068e-06 -3.21392e-05 -0.168065 0.0700478 -0.0574683)
(9.34542e-08 -8.11017e-07 -2.6694e-05 -0.1679 0.0698653 -0.0576689)
(-7.76852e-06 1.65818e-06 -2.44334e-05 -0.168052 0.0700333 -0.0574952)
(-5.38818e-05 1.94072e-06 -9.3473e-05 -0.167912 0.0698905 -0.057605)
(-0.000314514 -4.56837e-05 -0.000440249 -0.167867 0.0699201 -0.0575384)
(-0.00192991 -0.000335526 -0.00252824 -0.16638 0.0691447 -0.0595437)
(-0.0167761 -0.000536865 -0.00938236 -0.156473 0.0651275 -0.0697534)
(-0.0855802 0.000263448 -0.0481633 -0.147116 0.0614028 -0.0253778)
(-0.0724036 -1.12753e-05 0.0464791 -0.0980718 0.0681828 -0.12899)
(-0.0163973 0.000682522 0.00802499 -0.103197 0.0717481 -0.175005)
(-0.00180221 0.000432675 0.00154267 -0.109234 0.076234 -0.17132)
(-0.000206424 7.09615e-05 0.000229755 -0.1104 0.0773918 -0.170637)
(-2.73559e-05 -6.32187e-06 3.26035e-05 -0.110422 0.0774248 -0.170684)
(-4.48122e-06 -3.26459e-06 3.15326e-05 -0.110202 0.077358 -0.170699)
(-2.0913e-06 5.07873e-07 2.59683e-05 -0.110369 0.0773692 -0.17071)
(-1.48272e-06 -1.71409e-06 -2.5861e-06 -0.110178 0.0773627 -0.170696)
(-7.53537e-07 2.0634e-06 3.42612e-05 -0.110179 0.0773558 -0.170703)
(-1.20079e-06 7.2248e-06 3.38797e-05 -0.110394 0.0773821 -0.170707)
(-4.66407e-07 3.32583e-06 -1.14261e-05 -0.110296 0.0775571 -0.170677)
(7.49091e-08 -5.8842e-06 4.33354e-06 -0.110076 0.0775217 -0.170667)
(-1.08639e-06 -6.98818e-06 2.37412e-05 -0.110393 0.0773647 -0.17071)
(-7.95123e-07 6.30747e-06 1.78688e-06 -0.11037 0.0772295 -0.170691)
(1.215e-07 3.75188e-06 -1.4632e-06 -0.110309 0.0775706 -0.17068)
(-3.77314e-07 -9.01576e-06 -2.06268e-06 -0.110397 0.0773866 -0.170711)
(-2.40492e-07 5.16499e-06 -8.15049e-07 -0.110368 0.0772284 -0.170694)
(-1.74737e-07 3.80651e-06 -3.45849e-06 -0.110313 0.0775718 -0.170676)
(-7.65608e-07 -2.1484e-06 -2.4612e-05 -0.110384 0.0773725 -0.170711)
(-7.96783e-07 -1.92147e-06 -2.79221e-05 -0.110083 0.0775422 -0.170666)
(-7.98357e-07 -4.15596e-06 4.67512e-06 -0.110164 0.0773434 -0.170691)
(-9.47123e-07 1.92146e-06 4.89659e-06 -0.110405 0.0773721 -0.170713)
(-1.11232e-06 -1.08699e-06 -3.77095e-05 -0.110397 0.0773871 -0.170708)
(-1.56759e-06 -1.73999e-06 -2.30658e-05 -0.110196 0.0773656 -0.170694)
(-5.16979e-06 3.4209e-06 -2.9249e-05 -0.110398 0.0773622 -0.170711)
(-2.77209e-05 9.93055e-06 -5.11038e-05 -0.110214 0.0774079 -0.170668)
(-0.000206188 -7.34584e-05 -0.000209398 -0.110289 0.0775549 -0.170607)
(-0.00180235 -0.00043765 -0.00154465 -0.109198 0.0760739 -0.171319)
(-0.0163973 -0.000679185 -0.00802761 -0.103195 0.0717461 -0.175003)
(-0.0724024 1.12504e-05 -0.0464796 -0.0980755 0.0681726 -0.128991)
(-0.0763049 0.00117273 0.0467459 -0.0575538 0.0581651 -0.153405)
(-0.0165233 0.000871433 0.00786482 -0.0602169 0.0606468 -0.201966)
(-0.00180447 0.000519517 0.00136805 -0.063366 0.0647173 -0.199928)
(-0.000186589 9.82213e-05 0.000169499 -0.0641021 0.0658942 -0.199627)
(-1.85299e-05 -8.82713e-07 5.63155e-05 -0.0641041 0.0659374 -0.199687)
(-4.67952e-06 -5.1557e-06 3.49474e-05 -0.0639983 0.066047 -0.199648)
(-2.01759e-06 2.18273e-06 2.50849e-05 -0.0640743 0.0658763 -0.199696)
(-2.28668e-06 4.48198e-06 2.21134e-05 -0.0639919 0.0661444 -0.199667)
(-1.50428e-06 -2.8591e-06 7.97006e-06 -0.0640003 0.0661371 -0.199671)
(1.18228e-06 -2.77654e-06 9.34367e-06 -0.0640766 0.0658974 -0.199701)
(-7.59779e-07 3.22449e-06 1.85326e-05 -0.064065 0.0658722 -0.199688)
(-3.43923e-06 -2.69734e-06 4.74223e-06 -0.0639771 0.0661186 -0.199649)
(-3.43422e-07 -3.44359e-06 -1.99654e-05 -0.0640561 0.0657872 -0.199657)
(1.36491e-06 3.84415e-06 5.77578e-07 -0.0640079 0.0659003 -0.199683)
(-9.41993e-07 5.21175e-07 1.2074e-05 -0.06407 0.0658883 -0.199691)
(-1.22467e-07 -1.06787e-06 -1.70171e-05 -0.0640783 0.0659034 -0.199703)
(1.04394e-06 4.61803e-07 1.90556e-07 -0.0640076 0.065899 -0.199686)
(2.9999e-07 2.86028e-07 1.15615e-05 -0.0640721 0.0658877 -0.199691)
(-4.18885e-07 2.33575e-06 2.8369e-06 -0.0640704 0.0658876 -0.1997)
(-3.12185e-06 2.80412e-06 -8.98134e-07 -0.0639811 0.0661238 -0.199653)
(-2.73855e-06 -5.52041e-06 -2.14588e-05 -0.0639824 0.0661384 -0.199657)
(1.07572e-06 -2.54728e-06 -2.34129e-05 -0.0640673 0.0657963 -0.199683)
(1.20562e-07 5.09636e-06 -1.3059e-05 -0.0640768 0.0659044 -0.199703)
(-2.37277e-06 -3.97243e-06 -2.11506e-05 -0.064011 0.0661442 -0.199667)
(-4.02137e-06 4.04353e-06 -3.00276e-05 -0.0640716 0.0657863 -0.199676)
(-2.02211e-05 4.63496e-06 -4.62769e-05 -0.0640238 0.0661854 -0.19965)
(-0.000188775 -0.000102358 -0.000188968 -0.0640791 0.0658569 -0.199609)
(-0.00180353 -0.000519251 -0.00137491 -0.0632929 0.0646978 -0.199916)
(-0.016522 -0.000871972 -0.00785431 -0.0602148 0.0606449 -0.201963)
(-0.076302 -0.00117251 -0.0467456 -0.0575631 0.0581522 -0.153407)
(-0.0818779 0.00181545 0.0483687 -0.0351664 0.0409088 -0.154295)
(-0.0170825 0.000880245 0.00813748 -0.0372327 0.0422666 -0.205378)
(-0.00186638 0.00049495 0.00148774 -0.0391077 0.0456082 -0.203493)
(-0.000206486 0.000100451 0.00019009 -0.0396307 0.0464867 -0.203202)
(-2.03042e-05 -7.65627e-07 4.14862e-05 -0.0396399 0.0465331 -0.203268)
(-3.802e-06 -6.75577e-06 3.54917e-05 -0.0395808 0.0464297 -0.203236)
(-2.14617e-06 1.26758e-06 3.35493e-05 -0.039605 0.0464173 -0.203264)
(-2.14763e-06 1.53971e-06 1.908e-05 -0.0396222 0.0465017 -0.203286)
(-1.0832e-06 4.98116e-07 1.25283e-05 -0.0396165 0.0464281 -0.203249)
(7.4136e-07 3.36717e-07 1.17323e-05 -0.0396145 0.0465013 -0.20328)
(-1.2777e-06 -1.98448e-06 1.47615e-05 -0.0396095 0.0464879 -0.203277)
(-3.00416e-06 7.5522e-07 -4.5377e-06 -0.039614 0.0464791 -0.203254)
(2.26543e-07 5.94459e-06 -3.58816e-06 -0.0395689 0.0465022 -0.20326)
(9.11982e-07 1.03294e-06 1.0438e-05 -0.0395899 0.0466669 -0.203286)
(-1.08812e-06 -3.478e-06 -7.42181e-07 -0.0396074 0.0465021 -0.203279)
(5.36521e-08 4.0987e-06 -3.81522e-06 -0.0396158 0.0465077 -0.203284)
(8.46343e-07 -6.07996e-07 -2.27023e-07 -0.0395907 0.0466656 -0.203289)
(1.11239e-08 -4.23078e-06 -2.65494e-07 -0.0396076 0.0465017 -0.20328)
(-6.88926e-07 -1.56474e-06 -1.41837e-06 -0.0396114 0.0464922 -0.203258)
(-2.76948e-06 -7.49297e-07 -5.71487e-06 -0.0396158 0.04649 -0.20328)
(-2.23463e-06 1.11872e-06 -2.63279e-05 -0.0396176 0.0464915 -0.203261)
(9.36127e-07 1.57581e-06 -1.98586e-05 -0.0395797 0.0464962 -0.203252)
(-3.30148e-07 -1.26087e-06 -6.9329e-06 -0.0396121 0.0465102 -0.203284)
(-2.25282e-06 -3.84061e-06 -3.05344e-05 -0.0396214 0.0464323 -0.20327)
(-3.1423e-06 4.85994e-06 -3.04908e-05 -0.0395742 0.04642 -0.203228)
(-2.1523e-05 1.94476e-07 -3.5099e-05 -0.0396475 0.0465318 -0.203264)
(-0.000208601 -9.76923e-05 -0.000191729 -0.039617 0.0464611 -0.203192)
(-0.00186625 -0.00049251 -0.00149533 -0.0390838 0.0457506 -0.203466)
(-0.0170805 -0.000885598 -0.00814115 -0.0372312 0.0422651 -0.205375)
(-0.0818822 -0.00181475 -0.0483668 -0.035157 0.040832 -0.15428)
(-0.0860585 0.00177846 0.0503691 -0.022058 0.0263839 -0.152288)
(-0.0177672 0.000770743 0.00855133 -0.023578 0.0267736 -0.205729)
(-0.00194989 0.000412486 0.00165899 -0.0249318 0.0293916 -0.203766)
(-0.000234355 8.63104e-05 0.000210498 -0.0252869 0.0299606 -0.203435)
(-2.56256e-05 5.39137e-06 4.0549e-05 -0.025288 0.0299506 -0.203495)
(-3.48552e-06 -4.7303e-06 2.40654e-05 -0.0252438 0.030095 -0.203526)
(-1.77751e-06 -2.83716e-06 3.24171e-05 -0.0252444 0.029918 -0.203504)
(-1.89905e-06 2.23266e-06 1.79339e-05 -0.025282 0.0299927 -0.203529)
(-5.90441e-07 -1.5849e-07 1.37635e-05 -0.0252557 0.029994 -0.203517)
(5.46902e-08 -2.20368e-06 2.11876e-05 -0.0252848 0.0299824 -0.203503)
(-1.4711e-06 -2.06675e-06 1.23408e-05 -0.0252666 0.0299216 -0.203507)
(-2.21509e-06 3.9708e-06 3.65419e-06 -0.0252823 0.0299827 -0.203512)
(5.47009e-08 4.91962e-06 -2.62006e-06 -0.0252722 0.0300803 -0.203531)
(5.99457e-07 -1.21692e-06 2.27088e-06 -0.0252994 0.0300082 -0.203526)
(-1.0079e-06 -2.14288e-06 7.90147e-07 -0.025277 0.029986 -0.20352)
(-9.34067e-08 2.54032e-06 -4.5269e-06 -0.0252873 0.0299874 -0.203522)
(8.02167e-07 -3.32062e-07 -8.68302e-07 -0.0253 0.0300069 -0.203529)
(-2.58777e-07 -3.44675e-06 1.04263e-06 -0.0252766 0.0299857 -0.203522)
(-1.01474e-06 -1.71737e-06 -3.36972e-06 -0.0252844 0.0299808 -0.203493)
(-1.9158e-06 -1.0414e-07 -7.64074e-06 -0.0252812 0.0299852 -0.203524)
(-1.53957e-06 2.74632e-06 -1.46518e-05 -0.0252817 0.0299908 -0.203519)
(-4.12962e-08 1.8785e-06 -1.75029e-05 -0.0252599 0.0300311 -0.203519)
(-9.55667e-07 -1.15142e-06 -2.53689e-05 -0.0252785 0.0299907 -0.203525)
(-1.42491e-06 -9.98134e-07 -3.04875e-05 -0.0252632 0.0299899 -0.203518)
(-2.81815e-06 2.49397e-06 -2.04024e-05 -0.0252398 0.0300226 -0.203506)
(-2.65809e-05 -4.79811e-06 -3.56848e-05 -0.0253027 0.03001 -0.203504)
(-0.000235963 -8.64274e-05 -0.000212476 -0.0252853 0.0299427 -0.203423)
(-0.00194999 -0.000409613 -0.00166358 -0.0249488 0.0294054 -0.203761)
(-0.0177642 -0.000771864 -0.00856388 -0.0235773 0.026772 -0.205727)
(-0.0860654 -0.00177648 -0.0503566 -0.022026 0.0263741 -0.152278)
(-0.088743 0.00139832 0.0521175 -0.0139503 0.0164669 -0.151261)
(-0.0183641 0.000609178 0.00895254 -0.0148824 0.016378 -0.206543)
(-0.0020314 0.000319894 0.00181157 -0.0159394 0.0181856 -0.20448)
(-0.000259139 7.37243e-05 0.000233346 -0.0161925 0.0187143 -0.204177)
(-3.10029e-05 7.87568e-06 4.83721e-05 -0.0161812 0.0187551 -0.204246)
(-3.99004e-06 -2.50454e-06 3.01428e-05 -0.0161987 0.0188344 -0.204286)
(-1.41882e-06 -3.86101e-06 2.48786e-05 -0.0161535 0.0187604 -0.204265)
(-1.68613e-06 1.53012e-06 2.4857e-05 -0.0161936 0.0187482 -0.204273)
(-1.0189e-06 -1.67257e-06 1.36921e-05 -0.0161861 0.0188191 -0.204284)
(-2.25648e-07 -2.86914e-06 5.48312e-06 -0.016186 0.0186965 -0.204259)
(-9.97978e-07 -1.63886e-06 1.10931e-05 -0.0161653 0.0187368 -0.204262)
(-1.56712e-06 1.35599e-07 1.09656e-05 -0.0161878 0.0186943 -0.204236)
(1.28213e-08 4.83861e-06 -6.37205e-07 -0.0162055 0.0187056 -0.204261)
(2.10049e-07 8.56028e-07 3.46683e-06 -0.0162058 0.0187609 -0.204271)
(-1.03784e-06 -2.54557e-06 9.45413e-07 -0.0161923 0.018743 -0.204266)
(-1.33053e-07 1.85594e-06 -3.73654e-06 -0.0161899 0.0186965 -0.204257)
(4.92789e-07 8.12232e-07 -1.53665e-06 -0.0162058 0.0187593 -0.204273)
(-4.49929e-07 -4.25425e-06 -4.10573e-07 -0.0161917 0.0187437 -0.204269)
(-8.59233e-07 -1.48734e-06 -4.50109e-06 -0.0161893 0.0186943 -0.204237)
(-1.58741e-06 1.3423e-06 -7.6749e-06 -0.0161984 0.0187421 -0.204268)
(-1.21027e-06 2.962e-06 -2.18846e-05 -0.0162014 0.0187451 -0.204248)
(1.27193e-07 1.88493e-06 -1.62892e-05 -0.0161824 0.0187549 -0.204271)
(-1.42289e-06 -4.12816e-07 -8.3998e-06 -0.0161924 0.0187468 -0.204273)
(-1.68395e-06 6.71477e-07 -3.16945e-05 -0.0161834 0.0187723 -0.204252)
(-2.8488e-06 4.27854e-07 -2.80155e-05 -0.0161746 0.0187743 -0.204266)
(-3.19263e-05 -8.2659e-06 -3.6039e-05 -0.0162119 0.0187566 -0.204246)
(-0.000260529 -7.23712e-05 -0.000244577 -0.0161881 0.0186554 -0.204135)
(-0.00203099 -0.000316613 -0.00181384 -0.0159478 0.0181945 -0.204496)
(-0.0183609 -0.000607729 -0.0089551 -0.0148822 0.0163766 -0.20654)
(-0.0887421 -0.00139738 -0.0521042 -0.0139378 0.0165323 -0.151265)
(-0.0904003 0.000964938 0.0534017 -0.00882063 0.0102388 -0.150982)
(-0.0188004 0.00044825 0.00928333 -0.00929859 0.00999149 -0.207534)
(-0.00209828 0.000237862 0.00192644 -0.0101 0.0113135 -0.20547)
(-0.000278721 5.82956e-05 0.000274264 -0.0103126 0.0116679 -0.205148)
(-3.63215e-05 6.79149e-06 5.12468e-05 -0.01032 0.0117617 -0.205217)
(-4.55021e-06 -1.00104e-06 2.10663e-05 -0.0103372 0.0117192 -0.205249)
(-1.04416e-06 -2.69578e-06 2.4665e-05 -0.0103012 0.0117584 -0.205235)
(-1.73987e-06 -1.3857e-06 2.44245e-05 -0.0103185 0.0116985 -0.205248)
(-9.73458e-07 -2.55573e-07 5.89675e-06 -0.0103281 0.0117068 -0.20525)
(-2.7986e-07 -1.99276e-07 1.25364e-05 -0.0102966 0.0116963 -0.205245)
(-1.3606e-06 -1.76938e-06 9.65223e-06 -0.0103067 0.0117502 -0.205253)
(-7.90382e-07 -1.75401e-06 -3.23276e-06 -0.0103019 0.0116941 -0.205235)
(5.98924e-07 2.88399e-06 9.05404e-06 -0.0103027 0.0116622 -0.205231)
(-5.15255e-07 5.23878e-07 1.07252e-05 -0.0103253 0.0117066 -0.205244)
(-1.1732e-06 -9.03734e-07 -6.71003e-06 -0.0103182 0.0116949 -0.205243)
(1.84567e-07 1.44032e-06 -2.78362e-06 -0.0102997 0.0116955 -0.205239)
(-9.39082e-08 -3.88373e-07 5.52113e-06 -0.0103252 0.0117052 -0.205245)
(-7.39469e-07 -2.70426e-06 -9.97053e-06 -0.0103175 0.0116957 -0.205244)
(-2.48113e-07 -1.93418e-06 -4.99271e-06 -0.0103036 0.0116934 -0.20524)
(-1.04269e-06 -8.69098e-07 3.00456e-07 -0.010314 0.011652 -0.205233)
(-1.07303e-06 4.81319e-06 -1.35856e-05 -0.0103209 0.0116577 -0.205217)
(-5.69967e-07 2.99372e-06 -1.49855e-05 -0.0103185 0.0117641 -0.205257)
(-1.77235e-06 -1.32408e-06 -2.38445e-05 -0.0103178 0.0116988 -0.205249)
(-1.14428e-06 2.02189e-06 -3.16004e-05 -0.0103102 0.0117079 -0.205242)
(-3.43935e-06 -1.36316e-06 -1.94154e-05 -0.0103057 0.0117272 -0.205241)
(-3.67725e-05 -8.79979e-06 -4.62617e-05 -0.0103222 0.0116604 -0.20521)
(-0.00027954 -5.41333e-05 -0.000276875 -0.0103006 0.0116592 -0.205114)
(-0.00209818 -0.000235753 -0.00192243 -0.0101054 0.011317 -0.205465)
(-0.0187984 -0.000447789 -0.00928615 -0.00929972 0.00998938 -0.207529)
(-0.0903955 -0.000966238 -0.0533961 -0.00882752 0.0102506 -0.150986)
(-0.0914191 0.000613084 0.0542512 -0.00556875 0.00639944 -0.150957)
(-0.0190868 0.00031124 0.00954608 -0.00576952 0.00614854 -0.208326)
(-0.00214851 0.000172276 0.00201421 -0.00637946 0.00711486 -0.206271)
(-0.000293535 4.17323e-05 0.000286369 -0.00653797 0.00732575 -0.205942)
(-3.9782e-05 5.44985e-06 5.35289e-05 -0.0065595 0.00736355 -0.206008)
(-5.13553e-06 1.06819e-06 2.71479e-05 -0.00655818 0.00736591 -0.206042)
(-1.22454e-06 -1.94372e-06 2.29869e-05 -0.00655246 0.00741149 -0.206052)
(-1.41658e-06 -2.09813e-06 1.774e-05 -0.00654603 0.00735196 -0.206045)
(-8.37304e-07 1.5545e-06 1.30569e-05 -0.0065517 0.00735844 -0.206046)
(-6.62001e-07 -2.67649e-07 1.18698e-05 -0.00653844 0.00740126 -0.20605)
(-1.36931e-06 -2.22963e-06 8.24864e-06 -0.00654976 0.00735579 -0.206044)
(-4.13517e-07 1.39829e-06 -2.9877e-06 -0.00653393 0.00736135 -0.206041)
(6.48705e-07 1.16907e-06 3.5235e-06 -0.00652728 0.00740514 -0.206043)
(-5.4014e-07 -2.37507e-06 1.04245e-05 -0.00654939 0.00735684 -0.206041)
(-1.05587e-06 9.3464e-07 9.77929e-08 -0.00654681 0.00734883 -0.206042)
(-1.26316e-07 1.18515e-06 -1.98963e-06 -0.00653974 0.00739985 -0.206048)
(-3.25206e-07 -1.95673e-06 -1.79617e-06 -0.0065492 0.00735554 -0.206043)
(-7.85392e-07 -1.32044e-06 -3.9907e-06 -0.00654536 0.00735001 -0.206042)
(-4.90571e-07 -4.41148e-07 -1.24112e-05 -0.00653904 0.0073599 -0.206042)
(-3.94292e-07 -1.24833e-06 -1.43643e-05 -0.00652966 0.00734793 -0.206035)
(-2.75178e-07 2.48278e-06 -5.16398e-06 -0.00652613 0.00731346 -0.206032)
(-8.99784e-07 2.31675e-06 -6.32535e-06 -0.00655679 0.00736393 -0.206046)
(-2.1028e-06 8.95907e-07 -1.71126e-05 -0.00654551 0.00735299 -0.206046)
(-1.48663e-06 3.70177e-06 -3.09167e-05 -0.00654586 0.00740921 -0.206052)
(-4.11629e-06 -1.75252e-06 -3.31427e-05 -0.00654165 0.00741762 -0.206044)
(-3.95747e-05 -9.24778e-06 -4.29002e-05 -0.00653388 0.00735343 -0.206011)
(-0.000294087 -4.02331e-05 -0.000279732 -0.0065327 0.00732911 -0.205933)
(-0.00214886 -0.000170911 -0.00201603 -0.00638373 0.00711534 -0.206263)
(-0.0190858 -0.000310684 -0.00955001 -0.00577186 0.00614721 -0.2083)
(-0.0914158 -0.000614511 -0.0542486 -0.00557306 0.00640852 -0.150962)
(-0.0920465 0.000369991 0.0547776 -0.00351593 0.00401518 -0.150981)
(-0.0192622 0.000204738 0.00972323 -0.00357487 0.00381604 -0.208849)
(-0.00218267 0.000122128 0.00207932 -0.00402836 0.00444266 -0.206796)
(-0.000304583 3.07503e-05 0.000300742 -0.00413982 0.00462473 -0.206478)
(-4.23462e-05 4.3146e-06 5.43571e-05 -0.00415748 0.00465313 -0.20656)
(-5.61222e-06 9.26385e-07 2.71661e-05 -0.00415595 0.0046542 -0.20658)
(-1.36026e-06 -1.27889e-06 2.20704e-05 -0.00416115 0.0046586 -0.206586)
(-1.18407e-06 -1.25231e-06 1.75864e-05 -0.00414846 0.00464628 -0.206585)
(-7.99776e-07 8.74083e-07 1.35796e-05 -0.00415144 0.00464967 -0.206583)
(-1.05485e-06 -2.31643e-07 1.17365e-05 -0.00415485 0.00465367 -0.20657)
(-1.08628e-06 -5.83722e-07 2.11778e-07 -0.00415075 0.00465032 -0.206581)
(1.29363e-07 2.36472e-06 3.94955e-06 -0.0041392 0.00465215 -0.206578)
(1.22934e-07 -4.06918e-09 1.11141e-05 -0.00415142 0.00469878 -0.206586)
(-7.33885e-07 -3.41879e-06 2.98736e-06 -0.00415016 0.00464961 -0.20658)
(-6.5059e-07 3.39411e-07 1.5702e-07 -0.00415241 0.00464374 -0.206581)
(-2.97485e-07 1.21731e-06 -1.34777e-06 -0.00415461 0.00465262 -0.206571)
(-6.97864e-07 -1.20569e-06 -2.33047e-06 -0.00414964 0.00464871 -0.206583)
(-5.4902e-07 -1.1131e-06 -1.11035e-05 -0.00414861 0.00464452 -0.206582)
(-1.3022e-07 1.03326e-06 -5.66762e-06 -0.00413637 0.00461616 -0.206558)
(-4.5785e-07 1.77557e-06 -8.0904e-06 -0.0041466 0.00468754 -0.206584)
(-2.17483e-07 5.60513e-07 -1.07304e-05 -0.00412962 0.00469143 -0.206584)
(-8.96918e-07 -7.22328e-07 -5.3597e-06 -0.00415483 0.00465499 -0.206583)
(-1.90749e-06 6.05231e-07 -1.72489e-05 -0.00414809 0.00464769 -0.206585)
(-1.4455e-06 3.72282e-06 -2.30185e-05 -0.00415829 0.00465714 -0.206585)
(-5.38178e-06 2.32146e-07 -2.64742e-05 -0.00416082 0.00470613 -0.206583)
(-4.2389e-05 -8.47577e-06 -5.98543e-05 -0.00414601 0.00469098 -0.20656)
(-0.000304281 -3.18172e-05 -0.000300787 -0.00412926 0.00458823 -0.206463)
(-0.00218285 -0.000120997 -0.00207323 -0.00403115 0.00444129 -0.206787)
(-0.0192623 -0.000203823 -0.00972506 -0.00357566 0.00381322 -0.208843)
(-0.0920453 -0.000370925 -0.0547772 -0.00351657 0.00402178 -0.150983)
(-0.0924321 0.000216926 0.0550912 -0.00222655 0.00251823 -0.151004)
(-0.0193652 0.00013026 0.00983882 -0.00222315 0.0023781 -0.209169)
(-0.00220446 8.46067e-05 0.00212603 -0.0025418 0.0027938 -0.207125)
(-0.000312559 2.20191e-05 0.000311395 -0.00262683 0.00292227 -0.206814)
(-4.42549e-05 3.25707e-06 5.68239e-05 -0.00264488 0.00294385 -0.206888)
(-6.01798e-06 1.06146e-06 2.7457e-05 -0.00264018 0.00294348 -0.206919)
(-1.49709e-06 -7.75228e-07 2.14726e-05 -0.00264278 0.00294684 -0.206923)
(-1.07938e-06 -8.28466e-07 1.7011e-05 -0.00263526 0.00293898 -0.206923)
(-7.68955e-07 2.62861e-07 1.35711e-05 -0.00263664 0.00294089 -0.206923)
(-9.52953e-07 -2.02971e-07 1.15163e-05 -0.00263946 0.00294536 -0.206911)
(-9.01985e-07 1.15397e-06 6.76744e-06 -0.00263694 0.00294176 -0.206919)
(-9.04023e-08 1.46649e-06 4.51986e-06 -0.00263658 0.00298412 -0.206922)
(-2.59412e-07 -1.25517e-06 4.50649e-06 -0.00264587 0.00295064 -0.206919)
(-6.42577e-07 -3.09822e-06 2.06668e-06 -0.00263613 0.00294168 -0.206919)
(-2.71594e-07 3.72623e-08 -8.62805e-08 -0.00263217 0.00290227 -0.206915)
(-3.32524e-07 1.80682e-06 -7.92485e-07 -0.00263802 0.00294375 -0.206922)
(-9.19967e-07 -8.94229e-07 -2.53114e-06 -0.00263543 0.0029414 -0.206921)
(-4.60221e-07 1.21178e-06 -1.16744e-05 -0.00263834 0.002938 -0.206921)
(1.901e-07 1.34843e-08 -5.42106e-06 -0.00262037 0.00298395 -0.20692)
(-3.75569e-07 2.46197e-07 -8.83491e-07 -0.00263737 0.00290701 -0.206914)
(-5.93107e-07 1.33632e-06 -9.98364e-06 -0.00264133 0.0029855 -0.206925)
(-9.76609e-07 -1.45613e-06 -1.18554e-05 -0.00264001 0.00294436 -0.20692)
(-1.54548e-06 4.2904e-07 -1.7061e-05 -0.002635 0.00294056 -0.206923)
(-1.46501e-06 2.1573e-06 -2.19384e-05 -0.00264171 0.00294661 -0.206922)
(-6.13826e-06 -8.53652e-08 -2.67363e-05 -0.00265134 0.00295307 -0.206916)
(-4.44615e-05 -4.27199e-06 -6.24472e-05 -0.00264312 0.0029438 -0.206895)
(-0.000311948 -2.32452e-05 -0.000311627 -0.00261953 0.00296158 -0.206806)
(-0.00220449 -8.54861e-05 -0.00211947 -0.00254466 0.00279114 -0.207118)
(-0.019366 -0.000128962 -0.00984038 -0.00222219 0.00237548 -0.209167)
(-0.0924328 -0.000217333 -0.0550927 -0.00222269 0.00252307 -0.151005)
(-0.0926722 0.000125708 0.0552737 -0.00140794 0.0015322 -0.151015)
(-0.0194243 8.16242e-05 0.00991074 -0.00139482 0.00147889 -0.209361)
(-0.00221788 5.7178e-05 0.00215869 -0.00161376 0.0017482 -0.207327)
(-0.000318207 1.47105e-05 0.000318956 -0.00167743 0.00183767 -0.207021)
(-4.55068e-05 2.28957e-06 5.68573e-05 -0.00168599 0.00181647 -0.207104)
(-6.27498e-06 1.74153e-06 2.80449e-05 -0.00168905 0.00185213 -0.207128)
(-1.70087e-06 -3.82463e-07 2.10728e-05 -0.00168975 0.0018539 -0.207131)
(-1.05701e-06 -5.22958e-07 1.65151e-05 -0.00168528 0.00184984 -0.207133)
(-7.47107e-07 1.00068e-07 1.31461e-05 -0.00168581 0.0018515 -0.207133)
(-8.41104e-07 -2.43972e-07 1.10995e-05 -0.00168651 0.00185384 -0.207133)
(-7.56455e-07 3.38299e-07 7.20961e-06 -0.0016873 0.00185132 -0.207129)
(-2.09763e-07 9.83924e-07 5.20293e-06 -0.0016978 0.00185606 -0.207128)
(-6.56392e-07 -3.12555e-07 4.44161e-06 -0.00169198 0.00185777 -0.207126)
(-6.02347e-07 -1.32702e-06 -5.52921e-06 -0.00168575 0.00185223 -0.207129)
(2.59278e-07 1.16549e-07 -9.16951e-08 -0.00167401 0.00184919 -0.207125)
(-4.13408e-07 6.50568e-07 6.40829e-06 -0.00168599 0.00185438 -0.207131)
(-9.57647e-07 -1.4573e-06 -2.77199e-06 -0.00168492 0.00185258 -0.20713)
(-4.42036e-07 2.02231e-06 -5.0013e-06 -0.00168145 0.00181571 -0.207126)
(-1.66307e-07 1.41522e-06 -1.18487e-05 -0.00168741 0.00189644 -0.207133)
(-1.03734e-07 -2.0838e-06 -7.1654e-06 -0.00167715 0.00185267 -0.207123)
(-4.60516e-07 4.27209e-08 -2.92505e-06 -0.00169117 0.00182432 -0.207125)
(-1.14338e-06 6.78303e-08 -1.2199e-05 -0.00169023 0.00185207 -0.207128)
(-1.38047e-06 4.46423e-07 -1.68511e-05 -0.00168513 0.00185154 -0.207132)
(-1.52228e-06 1.19075e-06 -2.11191e-05 -0.00168949 0.00185429 -0.20713)
(-6.48811e-06 -3.3634e-07 -2.6801e-05 -0.00169474 0.00185814 -0.207125)
(-4.59805e-05 -3.16242e-06 -5.75696e-05 -0.00169192 0.00185232 -0.207102)
(-0.000317723 -1.68476e-05 -0.00032014 -0.00168388 0.00184229 -0.207011)
(-0.00221762 -5.77158e-05 -0.00215887 -0.00161879 0.00174507 -0.207322)
(-0.0194253 -7.90905e-05 -0.00991245 -0.00139386 0.00147702 -0.209361)
(-0.0926702 -0.000125169 -0.0552768 -0.00141225 0.00157361 -0.151022)
(-0.0928188 7.22259e-05 0.0553739 -0.00089583 0.000965591 -0.151025)
(-0.0194579 4.84033e-05 0.00996396 -0.000890643 0.000907512 -0.209476)
(-0.00222607 3.74539e-05 0.00218079 -0.00104014 0.00107822 -0.207452)
(-0.000322025 1.09235e-05 0.000317976 -0.00108738 0.00113881 -0.207148)
(-4.6193e-05 1.45938e-06 5.75551e-05 -0.00108637 0.00114775 -0.207231)
(-6.46298e-06 4.61369e-07 3.49611e-05 -0.00109835 0.00114698 -0.207257)
(-1.96591e-06 -2.90692e-08 2.08794e-05 -0.00109713 0.00114855 -0.207261)
(-1.04533e-06 -2.66261e-07 1.62172e-05 -0.00109437 0.00114679 -0.207262)
(-7.39036e-07 1.96745e-07 1.3128e-05 -0.00109469 0.00114837 -0.207263)
(-8.4866e-07 -3.58158e-07 1.0872e-05 -0.00109539 0.00115055 -0.207261)
(-6.37447e-07 -8.48236e-07 7.37291e-06 -0.00109728 0.00114683 -0.207258)
(-1.62268e-07 7.89766e-07 5.66543e-06 -0.00109639 0.00111691 -0.207253)
(-6.83248e-07 7.67284e-07 4.26605e-06 -0.00109818 0.00115112 -0.207256)
(-6.17655e-07 5.28279e-08 6.33615e-07 -0.00109489 0.00114879 -0.207258)
(1.27454e-07 1.27412e-07 1.52408e-07 -0.00109637 0.00118254 -0.207258)
(-6.12431e-07 -2.99783e-07 2.195e-07 -0.00109635 0.00115037 -0.207257)
(-7.66762e-07 -1.5865e-07 -9.77948e-06 -0.00109455 0.00114965 -0.207258)
(6.67146e-08 1.13645e-06 -4.61286e-06 -0.00108164 0.00114852 -0.207255)
(-4.86146e-07 1.01074e-06 1.60659e-06 -0.00110305 0.00115684 -0.207258)
(-5.72612e-07 -5.1247e-07 -1.38902e-05 -0.00109767 0.00118476 -0.207257)
(-1.42776e-07 -1.34423e-06 -9.52085e-06 -0.00108686 0.00115383 -0.207252)
(-9.47484e-07 -6.50309e-07 -5.79367e-06 -0.00110125 0.00114705 -0.207257)
(-1.41039e-06 6.19198e-07 -1.65621e-05 -0.00109426 0.00114871 -0.207261)
(-1.61869e-06 5.8806e-07 -2.0721e-05 -0.00109748 0.001149 -0.207259)
(-6.94833e-06 -6.47447e-07 -2.70127e-05 -0.00109982 0.00115086 -0.207254)
(-4.71277e-05 -2.63956e-06 -6.53559e-05 -0.00110192 0.00114656 -0.207231)
(-0.000321242 -1.21125e-05 -0.000326311 -0.00108207 0.00110753 -0.207133)
(-0.00222515 -3.751e-05 -0.00217462 -0.00103693 0.00104161 -0.207443)
(-0.019459 -4.65757e-05 -0.0099557 -0.000890262 0.000907008 -0.209476)
(-0.0928146 -7.10693e-05 -0.0553824 -0.000908925 0.00096539 -0.151034)
(-0.0929 4.05209e-05 0.0554413 -0.00060673 0.000609917 -0.151041)
(-0.0194773 2.69957e-05 0.00997938 -0.00058974 0.000535011 -0.209544)
(-0.00223013 2.32742e-05 0.00219519 -0.000693913 0.000639093 -0.207526)
(-0.000324528 7.78582e-06 0.000328835 -0.00073062 0.000678019 -0.207224)
(-4.72073e-05 3.75031e-07 5.88344e-05 -0.000741789 0.00071663 -0.207303)
(-6.5358e-06 -3.14743e-07 2.8292e-05 -0.000741686 0.000681153 -0.207336)
(-1.8853e-06 4.39307e-07 2.09195e-05 -0.000737221 0.000682855 -0.207339)
(-1.05505e-06 -8.09413e-08 1.60947e-05 -0.000735554 0.000682459 -0.207341)
(-7.63644e-07 5.27255e-08 1.32994e-05 -0.000735959 0.000683715 -0.207341)
(-9.98898e-07 -6.712e-07 1.07571e-05 -0.000737694 0.000685055 -0.20733)
(-5.07666e-07 2.2299e-07 6.18323e-07 -0.00074083 0.000681623 -0.207337)
(1.26944e-07 9.1202e-07 6.07671e-06 -0.000726457 0.000685432 -0.20733)
(-8.10737e-07 -1.87044e-07 1.08405e-05 -0.000737489 0.000685176 -0.207335)
(-7.52072e-07 -1.11949e-06 4.37078e-07 -0.000736074 0.000684095 -0.207336)
(2.21123e-07 -1.4753e-07 3.68892e-07 -0.000739048 0.000649983 -0.207333)
(-4.62263e-07 9.49909e-07 4.96359e-07 -0.000739033 0.000684165 -0.207326)
(-7.41453e-07 1.41046e-06 -3.15636e-06 -0.000736753 0.000684965 -0.207327)
(-2.20713e-07 7.76493e-07 -4.20642e-06 -0.00073311 0.000720085 -0.207337)
(-4.25365e-07 -1.61709e-06 -4.97134e-06 -0.000741521 0.00068927 -0.207334)
(-5.25618e-07 9.28228e-07 -7.37036e-06 -0.000739186 0.000651819 -0.207332)
(-4.691e-07 -8.18092e-07 -9.72147e-06 -0.000736072 0.00072308 -0.207334)
(-7.94186e-07 -1.61863e-06 -1.26529e-05 -0.000734846 0.000648124 -0.207333)
(-1.17811e-06 1.16133e-06 -1.64103e-05 -0.000736111 0.000684524 -0.207338)
(-1.77368e-06 2.16466e-07 -2.06426e-05 -0.000738351 0.000682884 -0.207338)
(-7.13224e-06 -1.25438e-06 -2.72195e-05 -0.000738573 0.000684288 -0.207333)
(-4.7916e-05 3.22762e-08 -6.60724e-05 -0.000734879 0.000647473 -0.207305)
(-0.000323795 -5.89796e-06 -0.000337556 -0.000719768 0.000714656 -0.207213)
(-0.00222922 -2.50443e-05 -0.00218922 -0.000680789 0.000638031 -0.207518)
(-0.0194775 -2.75518e-05 -0.00997376 -0.000590641 0.00053464 -0.209542)
(-0.0929001 -3.99196e-05 -0.0554379 -0.000604303 0.000572037 -0.151045)
(-0.0929485 2.09082e-05 0.055475 -0.000435737 0.000262987 -0.151045)
(-0.0194877 1.54111e-05 0.00999381 -0.000420424 0.00027995 -0.209584)
(-0.00223252 1.25298e-05 0.00220388 -0.000498454 0.000336073 -0.207569)
(-0.000326127 2.67914e-06 0.000332556 -0.000528871 0.000357174 -0.207258)
(-4.7603e-05 -6.49133e-07 5.76743e-05 -0.00053982 0.000324524 -0.207355)
(-6.41129e-06 1.38645e-06 2.87148e-05 -0.000529794 0.000324549 -0.207378)
(-1.9633e-06 1.23095e-06 2.11162e-05 -0.000532819 0.00035961 -0.207384)
(-1.15859e-06 2.68657e-08 1.60792e-05 -0.000531986 0.000359881 -0.207386)
(-8.55825e-07 -1.19396e-07 1.30176e-05 -0.000532468 0.00036075 -0.207385)
(-7.72698e-07 -1.33732e-06 1.01728e-05 -0.0005331 0.000359882 -0.207384)
(-2.97994e-07 1.38036e-06 7.70259e-06 -0.000529638 0.000325409 -0.207379)
(-2.37577e-07 1.46573e-06 6.49985e-06 -0.000532031 0.000396655 -0.207378)
(-1.10425e-06 -1.18269e-06 4.06207e-06 -0.000534266 0.000362225 -0.207379)
(-6.30682e-07 -2.75361e-07 -6.46475e-06 -0.000532378 0.000361189 -0.207381)
(5.63483e-07 -4.87617e-07 -7.9317e-08 -0.000524646 0.000360575 -0.207377)
(-2.85968e-07 7.57939e-08 7.21692e-06 -0.000535394 0.000357967 -0.207381)
(-8.19148e-07 1.05699e-06 -2.46998e-06 -0.000533324 0.000360807 -0.207381)
(-5.3655e-07 4.57559e-07 -3.54376e-06 -0.000538247 0.000363225 -0.207382)
(-4.4701e-07 -1.59724e-07 -1.15484e-05 -0.000536471 0.000362706 -0.20737)
(-3.99598e-07 4.34887e-07 -7.24835e-06 -0.000523504 0.000362743 -0.207375)
(-6.27927e-07 -6.04824e-07 -1.0229e-05 -0.000539989 0.000364305 -0.20737)