/*--------------------------------*- C++ -*----------------------------------*\
| =========                 |                                                 |
| \\      /  F ield         | OpenFOAM: The Open Source CFD Toolbox           |
|  \\    /   O peration     | Version:  2106                                  |
|   \\  /    A nd           | Website:  www.openfoam.com                      |
|    \\/     M anipulation  |                                                 |
\*---------------------------------------------------------------------------*/
FoamFile
{
    version     2.0;
    format      ascii;
    arch        "LSB;label=32;scalar=64";
    class       volSymmTensorField;
    location    "713";
    object      sigma;
}
// * * * * * * * * * * * * * * * * * * * * * * * * * * * * * * * * * * * * * //

dimensions      [1 -1 -2 0 0 0 0];

internalField   nonuniform List<symmTensor> 
9000
(
(5.39356e+07 -135940 2.48451e+07 2.21919e+07 3.16777e+07 8.4995e+07)
(9.63408e+07 277436 4.84085e+06 2.4274e+07 3.35973e+07 6.90111e+07)
(1.10954e+08 173199 1.32367e+06 2.61169e+07 3.56751e+07 8.12461e+07)
(1.12754e+08 26118 233116 2.62567e+07 3.61335e+07 8.33116e+07)
(1.1297e+08 -4099.75 20662.2 2.62935e+07 3.61472e+07 8.33841e+07)
(1.12978e+08 -1060.19 9235.07 2.63689e+07 3.60381e+07 8.32241e+07)
(1.12976e+08 -17.7028 13244.6 2.63016e+07 3.61224e+07 8.32801e+07)
(1.12985e+08 -3051.78 4043.99 2.63777e+07 3.60387e+07 8.32291e+07)
(1.12982e+08 3328.18 16166.4 2.6376e+07 3.6037e+07 8.32225e+07)
(1.12997e+08 3421 -3816.96 2.63038e+07 3.61337e+07 8.33528e+07)
(1.13002e+08 -3230.56 -25275.1 2.63652e+07 3.60732e+07 8.32877e+07)
(1.12981e+08 -277.673 20495.9 2.64348e+07 3.5975e+07 8.31401e+07)
(1.12991e+08 2812.06 30382 2.63026e+07 3.61276e+07 8.33316e+07)
(1.12989e+08 427.218 -15579.3 2.62913e+07 3.61322e+07 8.3335e+07)
(1.13005e+08 444.892 956.674 2.63613e+07 3.60778e+07 8.32984e+07)
(1.12999e+08 -612.612 15720.2 2.63024e+07 3.61346e+07 8.33519e+07)
(1.12989e+08 174.446 -18732.7 2.62917e+07 3.61317e+07 8.3332e+07)
(1.13004e+08 390.223 -1601.59 2.636e+07 3.60789e+07 8.33035e+07)
(1.12998e+08 -3437.87 -12779.4 2.63068e+07 3.61303e+07 8.33431e+07)
(1.12988e+08 -3288.59 -13749.5 2.6438e+07 3.59798e+07 8.3168e+07)
(1.1298e+08 3001.21 20456.7 2.63787e+07 3.60335e+07 8.32055e+07)
(1.12991e+08 3371.55 3456.12 2.62986e+07 3.61304e+07 8.33395e+07)
(1.13e+08 -3033.62 -16579.4 2.63033e+07 3.61351e+07 8.33557e+07)
(1.12986e+08 -418.373 -13770.5 2.63727e+07 3.60409e+07 8.32371e+07)
(1.12989e+08 855.392 -12604.3 2.6301e+07 3.61276e+07 8.33332e+07)
(1.12958e+08 1001.14 -48219.3 2.6366e+07 3.60539e+07 8.32693e+07)
(1.12755e+08 -23566.5 -227108 2.63208e+07 3.60692e+07 8.32353e+07)
(1.10943e+08 -173085 -1.30423e+06 2.61092e+07 3.56692e+07 8.12223e+07)
(9.63382e+07 -276949 -4.84001e+06 2.42737e+07 3.35968e+07 6.90092e+07)
(5.3934e+07 135903 -2.48457e+07 2.21902e+07 3.16754e+07 8.49902e+07)
(4.17512e+07 -5816.53 2.39769e+07 2.85099e+07 3.5173e+07 1.25601e+07)
(7.28745e+07 352088 4.13979e+06 2.8098e+07 3.70122e+07 -8.94506e+06)
(8.60172e+07 223201 795806 3.05973e+07 3.93263e+07 -1.43086e+06)
(8.73505e+07 36606.4 118522 3.05057e+07 3.99236e+07 -568496)
(8.74935e+07 -3261.22 16819 3.05449e+07 3.99406e+07 -541818)
(8.76097e+07 -1684.08 16266.5 3.07628e+07 3.99061e+07 -445310)
(8.75304e+07 261.993 13396.1 3.0596e+07 3.99119e+07 -531606)
(8.76249e+07 -884.237 -1334.07 3.07888e+07 3.99085e+07 -430097)
(8.76222e+07 1064.43 17674.1 3.07851e+07 3.9905e+07 -436487)
(8.75213e+07 3727 17477.3 3.05736e+07 3.99186e+07 -539460)
(8.75805e+07 1715.67 -5894.28 3.0683e+07 4.00088e+07 -465335)
(8.76869e+07 -3035.44 2235.51 3.09029e+07 3.99905e+07 -353845)
(8.75205e+07 -3604.94 12247.2 3.05736e+07 3.99095e+07 -542066)
(8.75401e+07 3253.79 921.784 3.06048e+07 3.98398e+07 -512773)
(8.7574e+07 1935.45 -754.808 3.06699e+07 4.00158e+07 -473699)
(8.75191e+07 -4650.89 -1064.06 3.05694e+07 3.99209e+07 -543967)
(8.75403e+07 2664.43 -420.454 3.06056e+07 3.98393e+07 -513978)
(8.7574e+07 1963.64 -1784.11 3.06678e+07 4.00164e+07 -471148)
(8.75247e+07 -1108.28 -12696.4 3.05821e+07 3.99136e+07 -538148)
(8.76832e+07 -991.217 -14404 3.08957e+07 4.00011e+07 -356408)
(8.76348e+07 -2143.91 2411.72 3.08059e+07 3.98986e+07 -417791)
(8.75138e+07 991.209 2525.97 3.05606e+07 3.99134e+07 -550294)
(8.75196e+07 -560.736 -19452.9 3.05707e+07 3.99211e+07 -541842)
(8.76181e+07 -897.594 -11898.8 3.0773e+07 3.991e+07 -435570)
(8.75141e+07 1764.71 -15088.5 3.05667e+07 3.99083e+07 -546467)
(8.75959e+07 5122.8 -26362.5 3.07549e+07 3.99319e+07 -431237)
(8.7416e+07 -37894.5 -108021 3.06286e+07 4.00077e+07 -487213)
(8.60343e+07 -225768 -796829 3.06331e+07 3.92437e+07 -1.41316e+06)
(7.2876e+07 -350366 -4.14114e+06 2.81004e+07 3.70111e+07 -8.94291e+06)
(4.17503e+07 5803.68 -2.39771e+07 2.85065e+07 3.51677e+07 1.25583e+07)
(4.53338e+07 604965 2.41145e+07 5.50067e+07 3.00052e+07 5.56061e+06)
(8.0097e+07 449540 4.05717e+06 5.75571e+07 3.12854e+07 -1.55659e+07)
(9.39294e+07 267999 705725 6.21721e+07 3.33853e+07 -8.27539e+06)
(9.53064e+07 50668.7 87438.1 6.23348e+07 3.39924e+07 -7.57758e+06)
(9.54418e+07 -455.359 29051.1 6.23825e+07 3.40147e+07 -7.55985e+06)
(9.55219e+07 -2659.64 18028 6.251e+07 3.40712e+07 -7.46649e+06)
(9.54673e+07 1125.99 12940.4 6.24148e+07 3.39831e+07 -7.5476e+06)
(9.55184e+07 2312.09 11407.5 6.25085e+07 3.41215e+07 -7.48123e+06)
(9.55135e+07 -1474.9 4111.46 6.24989e+07 3.41177e+07 -7.48852e+06)
(9.54671e+07 -1432.31 4820.05 6.24117e+07 3.3994e+07 -7.55209e+06)
(9.54769e+07 1663.39 9560.27 6.24285e+07 3.3981e+07 -7.53409e+06)
(9.55322e+07 -1391.46 2446.34 6.25306e+07 3.41081e+07 -7.45751e+06)
(9.54955e+07 -1776.42 -10299.4 6.24515e+07 3.39372e+07 -7.49983e+06)
(9.55072e+07 1983.05 297.951 6.24871e+07 3.39955e+07 -7.50262e+06)
(9.54726e+07 268.855 6228.52 6.24218e+07 3.39893e+07 -7.54024e+06)
(9.54644e+07 -550.873 -8778.49 6.24089e+07 3.39971e+07 -7.55467e+06)
(9.55057e+07 238.227 98.3006 6.2486e+07 3.39948e+07 -7.50545e+06)
(9.54729e+07 147.551 5964.16 6.24204e+07 3.3989e+07 -7.54049e+06)
(9.54689e+07 1204.93 1463.45 6.24176e+07 3.39889e+07 -7.54887e+06)
(9.55288e+07 1446.54 -463.314 6.25249e+07 3.41108e+07 -7.46331e+06)
(9.55268e+07 -2847.78 -11069.8 6.25221e+07 3.41183e+07 -7.46742e+06)
(9.54796e+07 -1314.05 -12077.8 6.24291e+07 3.39419e+07 -7.52998e+06)
(9.54654e+07 2629.02 -6736.67 6.24105e+07 3.39976e+07 -7.55393e+06)
(9.55094e+07 -2049.23 -10910.8 6.24898e+07 3.41213e+07 -7.49017e+06)
(9.54759e+07 2085.91 -15490.1 6.24258e+07 3.39367e+07 -7.52756e+06)
(9.54941e+07 2391 -23872.5 6.2477e+07 3.41426e+07 -7.48738e+06)
(9.5323e+07 -52802.8 -97481.6 6.23643e+07 3.39731e+07 -7.55075e+06)
(9.39694e+07 -267862 -709263 6.22493e+07 3.33752e+07 -8.22952e+06)
(8.01006e+07 -449818 -4.05174e+06 5.75611e+07 3.12845e+07 -1.55614e+07)
(4.53317e+07 -604855 -2.41143e+07 5.49984e+07 2.99986e+07 5.55627e+06)
(4.97611e+07 936522 2.49516e+07 7.38579e+07 2.11034e+07 1.24041e+07)
(8.85267e+07 454085 4.19782e+06 7.8132e+07 2.18037e+07 -8.60794e+06)
(1.03358e+08 255326 767471 8.41468e+07 2.35276e+07 -653378)
(1.04869e+08 51819 98060.1 8.45314e+07 2.39807e+07 150814)
(1.05016e+08 -394.958 21401.2 8.45777e+07 2.40047e+07 167925)
(1.05074e+08 -3485.05 18308.8 8.46577e+07 2.39514e+07 234166)
(1.05051e+08 653.9 17306.8 8.46217e+07 2.3945e+07 195971)
(1.05033e+08 794.281 9842.66 8.45949e+07 2.39885e+07 166539)
(1.05054e+08 256.96 6462.87 8.46183e+07 2.39505e+07 206611)
(1.05043e+08 173.7 6052.25 8.46065e+07 2.39883e+07 177456)
(1.05045e+08 -1023.72 7614.89 8.46121e+07 2.39814e+07 182369)
(1.05051e+08 389.59 -2340.83 8.46174e+07 2.39769e+07 201694)
(1.05072e+08 3066.59 -1851 8.46603e+07 2.39887e+07 218340)
(1.05052e+08 532.854 5384.59 8.46281e+07 2.40737e+07 183595)
(1.05044e+08 -1794.17 -382.864 8.4613e+07 2.39887e+07 180736)
(1.0504e+08 2114.37 -1968.13 8.46034e+07 2.39916e+07 173299)
(1.0505e+08 -313.643 -117.113 8.46257e+07 2.4073e+07 179788)
(1.05045e+08 -2182.5 -136.958 8.46129e+07 2.39885e+07 180282)
(1.05053e+08 -807.193 -731.684 8.46193e+07 2.39836e+07 200282)
(1.05039e+08 -386.534 -2948.09 8.46039e+07 2.39825e+07 175880)
(1.05047e+08 577.106 -13581.6 8.4611e+07 2.39833e+07 193615)
(1.05072e+08 812.903 -10244.3 8.46535e+07 2.39856e+07 220979)
(1.05041e+08 -650.435 -3576.42 8.46065e+07 2.39929e+07 174168)
(1.05041e+08 -1981.23 -15751.6 8.4603e+07 2.39527e+07 182629)
(1.05081e+08 2507.06 -15729.1 8.4668e+07 2.39463e+07 245101)
(1.05013e+08 100.323 -18106.3 8.45714e+07 2.4004e+07 167513)
(1.04878e+08 -50395.8 -98905.7 8.45484e+07 2.39676e+07 165896)
(1.03381e+08 -254067 -771386 8.41822e+07 2.3601e+07 -616716)
(8.85306e+07 -456847 -4.19972e+06 7.81356e+07 2.1803e+07 -8.60361e+06)
(4.97679e+07 -936161 -2.49506e+07 7.38717e+07 2.10637e+07 1.24204e+07)
(5.26187e+07 917441 2.59836e+07 8.56341e+07 1.36105e+07 1.84535e+07)
(9.39601e+07 397597 4.41131e+06 9.09625e+07 1.38115e+07 -3.00226e+06)
(1.09652e+08 212786 855813 9.77961e+07 1.5162e+07 5.54198e+06)
(1.11313e+08 44524.3 108588 9.83888e+07 1.54555e+07 6.48904e+06)
(1.11488e+08 2781.21 20917.7 9.8456e+07 1.54504e+07 6.52572e+06)
(1.11515e+08 -2440.19 12414.4 9.84947e+07 1.55249e+07 6.52548e+06)
(1.11527e+08 -1463.58 16722.8 9.85051e+07 1.54336e+07 6.54757e+06)
(1.11498e+08 1151.75 9251.43 9.84571e+07 1.54721e+07 6.50631e+06)
(1.11517e+08 -81.7592 7100.07 9.84888e+07 1.54728e+07 6.53065e+06)
(1.1151e+08 -1136.79 10929.9 9.8467e+07 1.54668e+07 6.53078e+06)
(1.11516e+08 -1066.16 6366.17 9.84824e+07 1.54354e+07 6.53506e+06)
(1.11505e+08 2048.39 1885.06 9.84644e+07 1.5467e+07 6.52249e+06)
(1.11504e+08 2537.85 -1351.59 9.84666e+07 1.55173e+07 6.50971e+06)
(1.11494e+08 -627.764 1171.46 9.84423e+07 1.54801e+07 6.50163e+06)
(1.11505e+08 -1105.43 407.607 9.84662e+07 1.54687e+07 6.51696e+06)
(1.11501e+08 1310.46 -2335.26 9.8456e+07 1.54694e+07 6.51148e+06)
(1.11492e+08 -171.298 -447.925 9.84405e+07 1.54794e+07 6.49854e+06)
(1.11505e+08 -1778.05 537.854 9.84662e+07 1.54685e+07 6.51601e+06)
(1.11515e+08 -885.929 -1738.31 9.84718e+07 1.5466e+07 6.54084e+06)
(1.11501e+08 -53.722 -3941.57 9.84602e+07 1.54682e+07 6.51164e+06)
(1.11503e+08 1416.72 -7558.32 9.84622e+07 1.54712e+07 6.51641e+06)
(1.11514e+08 969.05 -9029.07 9.84838e+07 1.54919e+07 6.52649e+06)
(1.11502e+08 -593.976 -13086.9 9.84624e+07 1.54711e+07 6.51147e+06)
(1.11512e+08 -514.9 -15727.3 9.84806e+07 1.54706e+07 6.52562e+06)
(1.11527e+08 1286.54 -10524.8 9.85081e+07 1.54875e+07 6.54714e+06)
(1.11476e+08 -2475.17 -18408.5 9.84371e+07 1.5481e+07 6.50989e+06)
(1.11317e+08 -44584.7 -109608 9.83948e+07 1.54463e+07 6.49998e+06)
(1.09646e+08 -211304 -858181 9.77818e+07 1.51691e+07 5.53904e+06)
(9.39639e+07 -398176 -4.41779e+06 9.09652e+07 1.38107e+07 -2.99919e+06)
(5.26308e+07 -916422 -2.59771e+07 8.56664e+07 1.36054e+07 1.8474e+07)
(5.41912e+07 721343 2.68855e+07 9.2774e+07 8.49464e+06 2.19404e+07)
(9.69925e+07 314252 4.61828e+06 9.87886e+07 8.4488e+06 -81873.5)
(1.13369e+08 165022 934521 1.06194e+08 9.38127e+06 8.93309e+06)
(1.15118e+08 38031.6 120375 1.06899e+08 9.65399e+06 9.92495e+06)
(1.15314e+08 4062.77 24953.4 1.06983e+08 9.67505e+06 9.96693e+06)
(1.15314e+08 -1292 15549.6 1.0696e+08 9.71598e+06 9.93291e+06)
(1.15347e+08 -1991.75 12833.9 1.07014e+08 9.67779e+06 9.97467e+06)
(1.15325e+08 789.332 12822.8 1.06972e+08 9.67148e+06 9.94852e+06)
(1.15323e+08 -862.817 7063.26 1.06974e+08 9.70809e+06 9.94123e+06)
(1.15336e+08 -1480.08 2828.54 1.06986e+08 9.64485e+06 9.96643e+06)
(1.15343e+08 -845.425 5722.53 1.07004e+08 9.6656e+06 9.97211e+06)
(1.15344e+08 69.9507 5656.73 1.06995e+08 9.64371e+06 9.98772e+06)
(1.15326e+08 2496.06 -328.71 1.06966e+08 9.64951e+06 9.95572e+06)
(1.15322e+08 441.593 1788.41 1.06962e+08 9.67807e+06 9.9458e+06)
(1.15329e+08 -1313.16 487.703 1.06976e+08 9.6688e+06 9.95582e+06)
(1.15335e+08 957.409 -1927.54 1.06983e+08 9.64483e+06 9.96615e+06)
(1.15321e+08 419 -792.699 1.06961e+08 9.67722e+06 9.94436e+06)
(1.15329e+08 -2194.61 -211.799 1.06976e+08 9.66918e+06 9.95409e+06)
(1.15344e+08 -767.265 -2321.94 1.06993e+08 9.64372e+06 9.98622e+06)
(1.15325e+08 692.442 -3959.19 1.0697e+08 9.66837e+06 9.9515e+06)
(1.15333e+08 1527.99 -11289.4 1.06976e+08 9.66991e+06 9.96913e+06)
(1.15332e+08 972.365 -8402.97 1.06984e+08 9.67498e+06 9.95662e+06)
(1.15325e+08 -212.957 -4333.14 1.06973e+08 9.67079e+06 9.94914e+06)
(1.15339e+08 346.39 -16350 1.06991e+08 9.68392e+06 9.974e+06)
(1.15335e+08 220.714 -14452.2 1.06993e+08 9.68499e+06 9.9637e+06)
(1.15299e+08 -4264.07 -18591.2 1.06952e+08 9.67585e+06 9.95266e+06)
(1.15138e+08 -37333.6 -126168 1.06922e+08 9.62363e+06 9.96692e+06)
(1.13357e+08 -163329 -935691 1.06178e+08 9.38587e+06 8.91322e+06)
(9.6997e+07 -313505 -4.6196e+06 9.87916e+07 8.44807e+06 -77479.1)
(5.41962e+07 -720854 -2.68786e+07 9.2785e+07 8.52839e+06 2.19431e+07)
(5.50568e+07 497776 2.7548e+07 9.71407e+07 5.28183e+06 2.38052e+07)
(9.8673e+07 231235 4.78892e+06 1.03575e+08 5.15424e+06 1.31215e+06)
(1.15527e+08 122704 993778 1.11399e+08 5.83624e+06 1.06147e+07)
(1.1735e+08 30072.5 141482 1.12174e+08 6.01905e+06 1.16652e+07)
(1.17551e+08 3503.47 26436.3 1.12246e+08 6.06743e+06 1.17064e+07)
(1.1756e+08 -516.399 10867.3 1.12229e+08 6.04548e+06 1.16818e+07)
(1.17586e+08 -1390.65 12723.7 1.12272e+08 6.0657e+06 1.1713e+07)
(1.17571e+08 -714.829 12599.7 1.12249e+08 6.0348e+06 1.16927e+07)
(1.17567e+08 -131.841 3041.91 1.12239e+08 6.03911e+06 1.1686e+07)
(1.17584e+08 -102.799 6467.07 1.12273e+08 6.03368e+06 1.17063e+07)
(1.17575e+08 -912.758 4979.23 1.12259e+08 6.06149e+06 1.16932e+07)
(1.17586e+08 -904.83 -1667.66 1.12272e+08 6.03253e+06 1.17127e+07)
(1.17589e+08 1487.74 4670.64 1.12274e+08 6.01609e+06 1.17173e+07)
(1.17571e+08 270.249 5532.72 1.12245e+08 6.03901e+06 1.16938e+07)
(1.17575e+08 -466.203 -3461.46 1.12252e+08 6.03298e+06 1.16982e+07)
(1.17586e+08 743.01 -1435.97 1.12272e+08 6.0333e+06 1.17104e+07)
(1.17571e+08 -200.347 2848.15 1.12245e+08 6.03826e+06 1.1693e+07)
(1.17575e+08 -1395.03 -5143.43 1.12253e+08 6.03337e+06 1.16973e+07)
(1.17583e+08 -997.772 -2575.55 1.12268e+08 6.03221e+06 1.17073e+07)
(1.17581e+08 -448.335 154.994 1.12261e+08 6.01086e+06 1.17091e+07)
(1.17585e+08 2482.95 -7008.29 1.12262e+08 6.01375e+06 1.17221e+07)
(1.17568e+08 1544.35 -7730.48 1.12246e+08 6.06867e+06 1.16837e+07)
(1.17571e+08 -683.046 -12300.5 1.1225e+08 6.03497e+06 1.1692e+07)
(1.17579e+08 1043.02 -16301.5 1.12261e+08 6.03966e+06 1.17027e+07)
(1.17579e+08 -703.205 -10015.7 1.12264e+08 6.04962e+06 1.17039e+07)
(1.17553e+08 -4539.49 -23864.7 1.12247e+08 6.01516e+06 1.17114e+07)
(1.1737e+08 -27925.3 -142830 1.12201e+08 6.01456e+06 1.17034e+07)
(1.15527e+08 -121616 -991710 1.11396e+08 5.83803e+06 1.06172e+07)
(9.8677e+07 -230998 -4.79038e+06 1.03577e+08 5.15315e+06 1.318e+06)
(5.50563e+07 -498446 -2.75451e+07 9.71342e+07 5.2879e+06 2.38e+07)
(5.55664e+07 316267 2.79862e+07 9.98534e+07 3.30123e+06 2.4853e+07)
(9.96495e+07 160557 4.92447e+06 1.06519e+08 3.1718e+06 2.02819e+06)
(1.16817e+08 88870.9 1.03906e+06 1.14634e+08 3.67029e+06 1.15175e+07)
(1.18702e+08 21528.1 147727 1.15481e+08 3.77908e+06 1.26161e+07)
(1.18909e+08 2811.37 27613.6 1.15546e+08 3.79858e+06 1.26579e+07)
(1.18928e+08 551.041 14004.6 1.15548e+08 3.7998e+06 1.2641e+07)
(1.1893e+08 -1002.69 11858.1 1.1555e+08 3.82331e+06 1.26359e+07)
(1.18936e+08 -1082.35 9151.42 1.1556e+08 3.7926e+06 1.26455e+07)
(1.18934e+08 801.909 6735.57 1.15554e+08 3.79595e+06 1.26426e+07)
(1.18938e+08 -138.07 6123.18 1.15565e+08 3.81803e+06 1.26443e+07)
(1.18935e+08 -1150.19 4255.17 1.15557e+08 3.79458e+06 1.26452e+07)
(1.18945e+08 721.326 -1541.24 1.15574e+08 3.79744e+06 1.26561e+07)
(1.18948e+08 603.081 1817.64 1.1558e+08 3.82004e+06 1.26574e+07)
(1.18937e+08 -1225.21 5377.62 1.15559e+08 3.79512e+06 1.26486e+07)
(1.18938e+08 482.146 50.4477 1.15561e+08 3.79099e+06 1.26489e+07)
(1.18939e+08 611.375 -1026.38 1.15565e+08 3.81731e+06 1.26464e+07)
(1.18937e+08 -1009.4 -926.578 1.15558e+08 3.79445e+06 1.2647e+07)
(1.18938e+08 -681.168 -2058.65 1.15562e+08 3.7916e+06 1.26495e+07)
(1.18942e+08 -227.572 -6402.46 1.15569e+08 3.7967e+06 1.26529e+07)
(1.18949e+08 -643.966 -7409.99 1.15581e+08 3.79052e+06 1.26633e+07)
(1.18952e+08 1280.77 -2663.91 1.15586e+08 3.77274e+06 1.26686e+07)
(1.18931e+08 1195.13 -3263.01 1.15549e+08 3.79878e+06 1.26399e+07)
(1.18935e+08 462.165 -8827.74 1.1556e+08 3.79313e+06 1.26445e+07)
(1.18933e+08 1909.6 -15948.8 1.15557e+08 3.82213e+06 1.26389e+07)
(1.18936e+08 -904.061 -17097.1 1.15564e+08 3.82647e+06 1.26478e+07)
(1.1892e+08 -4770.58 -22130.6 1.1557e+08 3.79336e+06 1.26668e+07)
(1.18708e+08 -20754.8 -144303 1.1549e+08 3.78082e+06 1.26265e+07)
(1.16818e+08 -88166.4 -1.03999e+06 1.14634e+08 3.67054e+06 1.15235e+07)
(9.96608e+07 -160270 -4.92649e+06 1.06529e+08 3.17112e+06 2.05201e+06)
(5.55656e+07 -317003 -2.79848e+07 9.98487e+07 3.30592e+06 2.48482e+07)
(5.58854e+07 190865 2.82577e+07 1.01555e+08 2.07128e+06 2.54833e+07)
(1.00245e+08 105617 5.01585e+06 1.08338e+08 1.96855e+06 2.44454e+06)
(1.17621e+08 63001.5 1.07264e+06 1.16669e+08 2.2918e+06 1.20688e+07)
(1.19546e+08 15862.9 155142 1.17567e+08 2.38573e+06 1.31884e+07)
(1.19755e+08 2225.74 28040.8 1.17632e+08 2.40038e+06 1.32204e+07)
(1.19783e+08 477.888 14014 1.17642e+08 2.40093e+06 1.32184e+07)
(1.19782e+08 -659.733 11385.3 1.17636e+08 2.4032e+06 1.32122e+07)
(1.19788e+08 -646.018 9072.16 1.17649e+08 2.39684e+06 1.32196e+07)
(1.19788e+08 450.907 7005.2 1.17647e+08 2.39859e+06 1.32195e+07)
(1.19792e+08 -119.496 6054.43 1.17649e+08 2.40066e+06 1.32309e+07)
(1.19789e+08 -301.12 109.249 1.17648e+08 2.39893e+06 1.32218e+07)
(1.19797e+08 1219.87 2037.43 1.17662e+08 2.39987e+06 1.32312e+07)
(1.19788e+08 -2.09914 5733.33 1.17646e+08 2.42392e+06 1.32175e+07)
(1.1979e+08 -1763.63 1541.07 1.17649e+08 2.39856e+06 1.32231e+07)
(1.19788e+08 175.09 81.001 1.17647e+08 2.39553e+06 1.32212e+07)
(1.19793e+08 627.963 -695.263 1.1765e+08 2.40011e+06 1.32307e+07)
(1.19789e+08 -621.969 -1202.2 1.17649e+08 2.39809e+06 1.32213e+07)
(1.1979e+08 -574.204 -5727.86 1.1765e+08 2.39593e+06 1.32224e+07)
(1.19807e+08 533.019 -2923.71 1.17674e+08 2.3813e+06 1.3252e+07)
(1.1979e+08 915.95 -4173.54 1.17651e+08 2.41813e+06 1.32216e+07)
(1.19798e+08 289.148 -5535.41 1.17668e+08 2.42013e+06 1.3229e+07)
(1.19786e+08 -372.622 -2764.87 1.17644e+08 2.40133e+06 1.32186e+07)
(1.19788e+08 312.216 -8898.05 1.17649e+08 2.39757e+06 1.3219e+07)
(1.19783e+08 1920.47 -11874.4 1.17639e+08 2.40244e+06 1.32148e+07)
(1.19779e+08 119.756 -13657.1 1.17635e+08 2.42772e+06 1.32131e+07)
(1.1976e+08 -4372.33 -30876.6 1.17643e+08 2.4199e+06 1.32253e+07)
(1.19557e+08 -16413.3 -155165 1.17584e+08 2.36689e+06 1.32077e+07)
(1.17623e+08 -62418 -1.0695e+06 1.1667e+08 2.2911e+06 1.20753e+07)
(1.00247e+08 -105145 -5.0168e+06 1.08339e+08 1.9671e+06 2.44917e+06)
(5.58851e+07 -191346 -2.82575e+07 1.01554e+08 2.07469e+06 2.54811e+07)
(5.60906e+07 111904 2.84195e+07 1.02624e+08 1.29906e+06 2.58757e+07)
(1.00618e+08 67196.2 5.07548e+06 1.09461e+08 1.22677e+06 2.70493e+06)
(1.1813e+08 43645.5 1.09674e+06 1.17956e+08 1.44122e+06 1.24194e+07)
(1.20077e+08 11358.9 160637 1.18884e+08 1.50749e+06 1.35509e+07)
(1.20297e+08 1680.2 29313.3 1.18955e+08 1.51862e+06 1.35941e+07)
(1.20322e+08 547.565 14164.1 1.18963e+08 1.51843e+06 1.35832e+07)
(1.20323e+08 -399.911 11076.9 1.18961e+08 1.52017e+06 1.35805e+07)
(1.20327e+08 -427.375 8775.36 1.18968e+08 1.51611e+06 1.35833e+07)
(1.20327e+08 135.6 7000.8 1.18967e+08 1.5171e+06 1.35833e+07)
(1.20331e+08 -104.705 5940.82 1.1897e+08 1.5194e+06 1.3594e+07)
(1.20328e+08 595.292 3491.07 1.18968e+08 1.51754e+06 1.35867e+07)
(1.20328e+08 756.505 2331.63 1.18968e+08 1.5394e+06 1.35841e+07)
(1.20325e+08 -647.498 2324.73 1.1896e+08 1.52213e+06 1.35829e+07)
(1.20329e+08 -1598.26 1066.12 1.18969e+08 1.5175e+06 1.3587e+07)
(1.20333e+08 19.2222 -44.5089 1.18975e+08 1.49717e+06 1.35931e+07)
(1.20327e+08 932.069 -408.813 1.18966e+08 1.51857e+06 1.35841e+07)
(1.20328e+08 -461.3 -1305.72 1.18969e+08 1.51736e+06 1.35852e+07)
(1.20327e+08 625.111 -6022.4 1.18966e+08 1.51561e+06 1.35843e+07)
(1.20337e+08 6.95606 -2796.53 1.18985e+08 1.53931e+06 1.35942e+07)
(1.20331e+08 127.004 -455.76 1.18971e+08 1.49962e+06 1.35922e+07)
(1.20324e+08 689.359 -5150.19 1.18962e+08 1.54011e+06 1.35791e+07)
(1.20327e+08 -751.164 -6115.77 1.18965e+08 1.51889e+06 1.35849e+07)
(1.20327e+08 221.326 -8801.12 1.18968e+08 1.51693e+06 1.35833e+07)
(1.20324e+08 1112.87 -11317.2 1.18962e+08 1.52005e+06 1.35819e+07)
(1.20318e+08 -44.0367 -13792.2 1.18953e+08 1.52338e+06 1.35804e+07)
(1.20294e+08 -2203.76 -32214.2 1.18953e+08 1.51859e+06 1.35875e+07)
(1.20085e+08 -11991.4 -160757 1.18895e+08 1.52777e+06 1.35624e+07)
(1.18132e+08 -44099.1 -1.09335e+06 1.17957e+08 1.43985e+06 1.24249e+07)
(1.00618e+08 -66526.6 -5.07628e+06 1.09462e+08 1.22542e+06 2.70701e+06)
(5.60908e+07 -112114 -2.84203e+07 1.02627e+08 1.30156e+06 2.58754e+07)
(5.62268e+07 64847.9 2.85137e+07 1.03307e+08 790406 2.61299e+07)
(1.00852e+08 42106.9 5.11258e+06 1.10153e+08 762906 2.87079e+06)
(1.1845e+08 29496 1.11359e+06 1.18762e+08 901830 1.26416e+07)
(1.20412e+08 7588.58 164538 1.19711e+08 947983 1.37818e+07)
(1.20636e+08 1181.1 29330.6 1.1979e+08 937049 1.38226e+07)
(1.20662e+08 898.389 14467.3 1.19794e+08 955446 1.38155e+07)
(1.20665e+08 -197.299 10870.7 1.19794e+08 956359 1.38141e+07)
(1.20666e+08 -269.774 8519.51 1.19798e+08 954262 1.38147e+07)
(1.20666e+08 51.6215 6781.56 1.19797e+08 955121 1.38143e+07)
(1.20666e+08 -125.856 5725.8 1.19797e+08 956326 1.38147e+07)
(1.20668e+08 174.516 3719.17 1.19798e+08 955025 1.38182e+07)
(1.20664e+08 507.57 2684 1.19788e+08 957472 1.38141e+07)
(1.20667e+08 -161.236 2291.26 1.19794e+08 958354 1.38184e+07)
(1.20669e+08 -684.56 -2852.31 1.19799e+08 955498 1.38189e+07)
(1.20677e+08 60.1234 -47.3021 1.19813e+08 953926 1.38284e+07)
(1.20668e+08 335.604 3305.8 1.19798e+08 956607 1.38169e+07)
(1.20668e+08 -751.769 -1429.97 1.19799e+08 955675 1.38176e+07)
(1.20672e+08 1043.24 -2579.98 1.19805e+08 936657 1.38231e+07)
(1.20666e+08 730.061 -6112.33 1.19796e+08 978302 1.38143e+07)
(1.20676e+08 -1074.95 -3696.36 1.19811e+08 955724 1.38288e+07)
(1.20668e+08 22.0381 -1508.92 1.19796e+08 941098 1.382e+07)
(1.20666e+08 34.9911 -6293 1.19795e+08 955412 1.38175e+07)
(1.20666e+08 230.293 -8692.85 1.19798e+08 955143 1.38153e+07)
(1.20665e+08 614.262 -10894.6 1.19795e+08 956561 1.38153e+07)
(1.20661e+08 -173.505 -13825.6 1.1979e+08 958544 1.38162e+07)
(1.20634e+08 -1631.38 -29698 1.19785e+08 955545 1.38211e+07)
(1.20414e+08 -8691.05 -165148 1.1971e+08 950369 1.37888e+07)
(1.18451e+08 -29773.4 -1.11368e+06 1.18759e+08 900215 1.2645e+07)
(1.00851e+08 -40799.8 -5.11346e+06 1.10153e+08 761937 2.87089e+06)
(5.62233e+07 -64569.9 -2.85152e+07 1.033e+08 811766 2.61216e+07)
(5.63142e+07 37258.7 2.85654e+07 1.03734e+08 498113 2.62879e+07)
(1.00997e+08 24969.5 5.14004e+06 1.10575e+08 468152 2.97377e+06)
(1.18648e+08 19321.1 1.12499e+06 1.1926e+08 556212 1.27798e+07)
(1.20621e+08 5635.05 164032 1.20226e+08 587470 1.39271e+07)
(1.20852e+08 752.837 29690.5 1.20315e+08 592083 1.39728e+07)
(1.20873e+08 238.003 18035.1 1.2031e+08 591686 1.39603e+07)
(1.20877e+08 -14.9957 10770.9 1.20312e+08 592495 1.39598e+07)
(1.20878e+08 -137.354 8365.85 1.20314e+08 591587 1.39595e+07)
(1.20878e+08 101.493 6772.27 1.20314e+08 592399 1.39593e+07)
(1.20878e+08 -184.761 5608.45 1.20314e+08 593524 1.39607e+07)
(1.20879e+08 -437.574 3803.41 1.20313e+08 591608 1.39627e+07)
(1.20882e+08 407.411 2922.58 1.20317e+08 576174 1.39684e+07)
(1.2088e+08 395.813 2200.7 1.20314e+08 593819 1.39646e+07)
(1.2088e+08 27.2519 326.859 1.20316e+08 592619 1.39639e+07)
(1.2088e+08 65.727 78.6214 1.20314e+08 610029 1.39632e+07)
(1.2088e+08 -154.647 113.232 1.20315e+08 593435 1.3964e+07)
(1.2088e+08 -81.8416 -5044.87 1.20316e+08 593064 1.39641e+07)
(1.20888e+08 586.253 -2379.6 1.2033e+08 592479 1.39729e+07)
(1.20877e+08 521.404 828.781 1.20308e+08 596770 1.396e+07)
(1.2088e+08 -264.364 -7165.46 1.20314e+08 611172 1.39638e+07)
(1.20887e+08 -693.437 -4911.45 1.20326e+08 595217 1.39733e+07)
(1.20877e+08 -335.47 -2988.74 1.2031e+08 591719 1.39616e+07)
(1.20878e+08 319.421 -8543.8 1.20315e+08 592574 1.39608e+07)
(1.20878e+08 303.358 -10689.2 1.20312e+08 592726 1.3961e+07)
(1.20874e+08 -333.994 -13934.8 1.2031e+08 593684 1.39628e+07)
(1.20844e+08 -1361.65 -33714.7 1.203e+08 591466 1.39661e+07)
(1.20631e+08 -6248.38 -168332 1.20239e+08 571332 1.39448e+07)
(1.18654e+08 -19350 -1.12181e+06 1.19267e+08 537329 1.27903e+07)
(1.00997e+08 -24026.7 -5.13577e+06 1.10576e+08 467892 2.97421e+06)
(5.63079e+07 -36662 -2.85697e+07 1.03719e+08 498009 2.62745e+07)
(5.63602e+07 20903.2 2.86001e+07 1.03971e+08 314633 2.63674e+07)
(1.01085e+08 13926.1 5.14799e+06 1.10829e+08 275992 3.03698e+06)
(1.18769e+08 12006.3 1.13242e+06 1.19561e+08 329684 1.28638e+07)
(1.20747e+08 4016.42 169634 1.20538e+08 349765 1.40156e+07)
(1.20976e+08 193.464 30350.5 1.20618e+08 369683 1.4061e+07)
(1.21001e+08 -162.364 14594.8 1.20622e+08 351382 1.40475e+07)
(1.21006e+08 226.622 10791.6 1.20626e+08 352259 1.40482e+07)
(1.21006e+08 -41.7546 8302.67 1.20628e+08 352055 1.40475e+07)
(1.21007e+08 27.1991 6860.64 1.20627e+08 352703 1.40477e+07)
(1.21011e+08 -346.247 5549.19 1.20631e+08 353395 1.40572e+07)
(1.21007e+08 115.032 318.97 1.20625e+08 351624 1.40495e+07)
(1.21017e+08 470.477 3134.75 1.20642e+08 353589 1.40628e+07)
(1.21009e+08 -96.4888 5592.21 1.20629e+08 353457 1.40527e+07)
(1.21009e+08 -577.505 225.472 1.20629e+08 352899 1.40518e+07)
(1.2101e+08 -76.105 190.297 1.20628e+08 335302 1.40543e+07)
(1.21012e+08 490.023 256.053 1.20631e+08 352935 1.40606e+07)
(1.21013e+08 727.605 -1628.25 1.20633e+08 353348 1.40605e+07)
(1.2101e+08 400.564 -2169.94 1.20632e+08 371465 1.40525e+07)
(1.21007e+08 -834.198 -2564.53 1.20625e+08 355569 1.40516e+07)
(1.2101e+08 478.838 -3802.09 1.20629e+08 336249 1.40552e+07)
(1.2101e+08 -422.023 -5014.94 1.20631e+08 373010 1.40545e+07)
(1.21011e+08 -834.993 -6527.16 1.20632e+08 334343 1.40557e+07)
(1.21007e+08 599.087 -8465.48 1.20628e+08 353120 1.405e+07)
(1.21006e+08 111.667 -10648.8 1.20626e+08 352275 1.40492e+07)
(1.21003e+08 -647.089 -14041.5 1.20626e+08 352999 1.40516e+07)
(1.20978e+08 16.6501 -34084.3 1.20623e+08 334007 1.40611e+07)
(1.20758e+08 -3042.54 -174133 1.20554e+08 368664 1.40311e+07)
(1.1878e+08 -12919.4 -1.12934e+06 1.19578e+08 329136 1.28789e+07)
(1.01086e+08 -14212.9 -5.14509e+06 1.10829e+08 275801 3.03879e+06)
(5.63595e+07 -20593 -2.85984e+07 1.03971e+08 295093 2.63648e+07)
(5.63897e+07 10785.8 2.86175e+07 1.04114e+08 135665 2.64201e+07)
(1.01134e+08 7950.01 5.15543e+06 1.10971e+08 144416 3.07063e+06)
(1.18836e+08 6463.64 1.1369e+06 1.19731e+08 173368 1.29111e+07)
(1.20823e+08 1382.07 171553 1.20718e+08 184253 1.40743e+07)
(1.21044e+08 -334.863 29752 1.2079e+08 167410 1.41019e+07)
(1.21079e+08 715.217 14812.9 1.20809e+08 167423 1.41032e+07)
(1.21079e+08 634.999 10893.1 1.20805e+08 185510 1.40984e+07)
(1.21079e+08 13.859 8294.65 1.20805e+08 185649 1.40973e+07)
(1.2108e+08 -61.592 6715.29 1.20805e+08 186098 1.40978e+07)
(1.2108e+08 -689.871 5247.76 1.20805e+08 185650 1.40984e+07)
(1.21084e+08 712.079 3973.48 1.20811e+08 167866 1.4105e+07)
(1.21084e+08 756.115 3353.03 1.20809e+08 204620 1.41053e+07)
(1.21081e+08 -610.104 2095.47 1.20806e+08 186858 1.41027e+07)
(1.21082e+08 -142.049 -3334.92 1.20807e+08 186324 1.41019e+07)
(1.21089e+08 -251.543 -40.9167 1.20818e+08 186007 1.41104e+07)
(1.21081e+08 39.0993 3722.94 1.20805e+08 184662 1.41005e+07)
(1.21081e+08 545.261 -1274.17 1.20806e+08 186127 1.41015e+07)
(1.21079e+08 236.038 -1828.09 1.20801e+08 187374 1.40987e+07)
(1.21085e+08 -82.3957 -5957.41 1.20808e+08 187107 1.41106e+07)
(1.21089e+08 224.342 -3739.15 1.20819e+08 187126 1.41118e+07)
(1.21084e+08 -312.006 -5276.74 1.20805e+08 187931 1.41096e+07)
(1.21088e+08 -411.433 -6665.94 1.20819e+08 185272 1.41104e+07)
(1.21084e+08 1.58499 -5282.94 1.2081e+08 186301 1.41083e+07)
(1.21078e+08 85.2077 -10689.4 1.20803e+08 185001 1.40983e+07)
(1.21077e+08 1.47321 -17558.8 1.20805e+08 186125 1.41021e+07)
(1.21055e+08 498.901 -30821 1.2081e+08 185026 1.41169e+07)
(1.2082e+08 -1230.94 -168197 1.20713e+08 203466 1.40705e+07)
(1.18841e+08 -7680.94 -1.13746e+06 1.19737e+08 191510 1.29174e+07)
(1.01134e+08 -8012.77 -5.15553e+06 1.10969e+08 143372 3.07208e+06)
(5.63886e+07 -10538.1 -2.86176e+07 1.04114e+08 155793 2.64157e+07)
(5.64075e+07 3364.09 2.86221e+07 1.04191e+08 48807.5 2.64525e+07)
(1.01156e+08 2169.13 5.16392e+06 1.11034e+08 44743.3 3.08436e+06)
(1.18867e+08 1925.4 1.13882e+06 1.19807e+08 53934.8 1.29322e+07)
(1.20851e+08 106.465 167776 1.20794e+08 56602.8 1.40879e+07)
(1.21089e+08 247.262 26403.4 1.20893e+08 40349 1.41375e+07)
(1.21117e+08 494.324 18325.1 1.209e+08 57598.6 1.41319e+07)
(1.21112e+08 12.3485 14455.6 1.20886e+08 57415.4 1.41212e+07)
(1.21112e+08 31.4124 8317.22 1.20886e+08 57698.8 1.41198e+07)
(1.21113e+08 -21.3517 6628.76 1.20886e+08 57867.9 1.41206e+07)
(1.21113e+08 -46.1047 1679.43 1.20886e+08 57687 1.41205e+07)
(1.21122e+08 183.206 4115.68 1.20901e+08 57784 1.41334e+07)
(1.21112e+08 -30.0932 6988.43 1.20881e+08 58343.5 1.41231e+07)
(1.21118e+08 -138.9 2064.54 1.20889e+08 57861.1 1.41335e+07)
(1.21115e+08 439.992 -74.9379 1.20888e+08 58133 1.41243e+07)
(1.21115e+08 -367.509 -284.091 1.20886e+08 75438 1.41244e+07)
(1.21112e+08 -440.916 402.088 1.20883e+08 56467 1.41204e+07)
(1.21118e+08 435.206 -935.141 1.2089e+08 57945.1 1.41316e+07)
(1.21113e+08 141.852 -1910.85 1.20884e+08 58467 1.41227e+07)
(1.21114e+08 642.864 -2599.69 1.20886e+08 57636.4 1.41239e+07)
(1.21116e+08 82.374 -3638.93 1.2089e+08 76500.7 1.41274e+07)
(1.21113e+08 -357.056 -5311.74 1.20885e+08 58560.8 1.41241e+07)
(1.21114e+08 -181.266 -6766.46 1.20886e+08 75104.7 1.41241e+07)
(1.21113e+08 -593.081 -8426.85 1.20887e+08 57576.7 1.41224e+07)
(1.2111e+08 75.4945 -10513.9 1.20882e+08 56600.7 1.41196e+07)
(1.2111e+08 653.734 -14125.1 1.20886e+08 57809.1 1.41257e+07)
(1.21081e+08 106.903 -30832.8 1.20877e+08 75064.8 1.41308e+07)
(1.20849e+08 -719.645 -172093 1.20786e+08 58080.4 1.40886e+07)
(1.18867e+08 -3056.67 -1.14002e+06 1.19805e+08 55098.8 1.29341e+07)
(1.01155e+08 -2712.71 -5.15871e+06 1.11029e+08 43110.9 3.08533e+06)