/*--------------------------------*- C++ -*----------------------------------*\
| =========                 |                                                 |
| \\      /  F ield         | OpenFOAM: The Open Source CFD Toolbox           |
|  \\    /   O peration     | Version:  2106                                  |
|   \\  /    A nd           | Website:  www.openfoam.com                      |
|    \\/     M anipulation  |                                                 |
\*---------------------------------------------------------------------------*/
FoamFile
{
    version     2.0;
    format      ascii;
    arch        "LSB;label=32;scalar=64";
    class       volTensorField;
    location    "713";
    object      testEpsilon;
}
// * * * * * * * * * * * * * * * * * * * * * * * * * * * * * * * * * * * * * //

dimensions      [0 0 0 0 0 0 0];

internalField   nonuniform List<tensor> 
9000
(
(-0.0855809 0.0038451 -0.105452 -0.00437214 -0.147116 -0.257497 0.201777 0.380312 -0.0253722)
(-0.0167733 0.00368737 -0.00285532 -0.00261175 -0.156475 -0.270369 0.0216233 0.400626 -0.069752)
(-0.00192931 0.00248193 0.0020412 -0.00181044 -0.166385 -0.287059 0.00309066 0.425371 -0.0595173)
(-0.00032107 0.000467113 0.000324673 -0.000365854 -0.167997 -0.290829 0.000579117 0.430919 -0.0573959)
(-5.53406e-05 -3.88121e-05 -2.83981e-05 2.29174e-05 -0.168078 -0.290941 0.000108506 0.431084 -0.0574083)
(-3.89698e-06 -2.32153e-05 -1.513e-05 1.91049e-05 -0.167896 -0.290163 5.09343e-05 0.429882 -0.0576824)
(-1.32839e-06 -1.28287e-06 -2.82899e-07 1.21423e-06 -0.16802 -0.290719 5.16322e-05 0.430766 -0.0575677)
(4.05569e-08 -3.10443e-05 -1.88163e-05 1.92125e-05 -0.167889 -0.29015 3.44948e-05 0.429872 -0.0576825)
(-9.26165e-07 3.98888e-05 2.54341e-05 -2.69855e-05 -0.167887 -0.290141 3.72432e-05 0.429856 -0.0576899)
(-6.55596e-06 1.74199e-05 8.78176e-06 -4.15671e-06 -0.168061 -0.290828 -2.35801e-05 0.430919 -0.0574715)
(2.41675e-06 -6.45229e-05 -4.46052e-05 5.1998e-05 -0.167943 -0.290389 -5.33861e-05 0.430245 -0.0575982)
(7.84817e-06 1.75734e-05 1.37778e-05 -1.86499e-05 -0.167761 -0.289679 6.56847e-05 0.429154 -0.0578377)
(-4.59396e-06 6.007e-05 4.13503e-05 -4.91676e-05 -0.16805 -0.290775 7.64407e-05 0.430842 -0.0574993)
(-4.35416e-06 -1.2038e-05 -1.08423e-05 1.36944e-05 -0.168067 -0.290781 -4.95588e-05 0.430866 -0.0574879)
(3.42598e-06 6.12134e-06 3.9619e-06 -4.39649e-06 -0.167955 -0.290435 -2.52869e-07 0.430309 -0.0575821)
(-2.632e-06 1.2945e-05 1.08218e-05 -1.53201e-05 -0.168063 -0.290838 5.01255e-05 0.430932 -0.0574731)
(-2.1676e-06 -1.85231e-05 -1.44588e-05 1.91994e-05 -0.168065 -0.290777 -5.81678e-05 0.430859 -0.0574929)
(6.13854e-09 1.44815e-06 1.53038e-06 6.47457e-08 -0.167958 -0.290445 -7.73976e-06 0.430323 -0.0575735)
(-2.17019e-06 -4.4726e-05 -2.82028e-05 3.13974e-05 -0.168052 -0.290796 -2.13428e-05 0.430873 -0.0574876)
(4.64297e-06 -4.11235e-05 -2.65774e-05 2.83736e-05 -0.167773 -0.289723 -2.67294e-05 0.429217 -0.057802)
(2.75264e-06 5.96061e-05 4.05201e-05 -4.79704e-05 -0.167874 -0.290094 3.87907e-05 0.429796 -0.0577151)
(-5.69248e-06 4.60334e-05 2.95296e-05 -3.29618e-05 -0.16806 -0.290812 -1.61302e-05 0.43089 -0.057486)
(-3.48957e-06 -3.46466e-05 -2.19967e-05 2.28853e-05 -0.168065 -0.290842 -4.22817e-05 0.430938 -0.0574683)
(9.34542e-08 -7.13648e-06 -4.14577e-06 5.51445e-06 -0.1679 -0.29018 -4.92423e-05 0.429911 -0.0576689)
(-7.76852e-06 1.21053e-05 6.87714e-06 -8.78891e-06 -0.168052 -0.290784 -5.57439e-05 0.43085 -0.0574952)
(-5.38818e-05 -2.20828e-05 -1.34142e-05 2.59642e-05 -0.167912 -0.290278 -0.000173532 0.430059 -0.057605)
(-0.000314514 -0.000438611 -0.000306245 0.000347244 -0.167867 -0.290349 -0.000574254 0.430189 -0.0575384)
(-0.00192991 -0.00245472 -0.00202171 0.00178366 -0.16638 -0.286976 -0.00303478 0.425266 -0.0595437)
(-0.0167761 -0.00367949 0.00286047 0.00260576 -0.156473 -0.270363 -0.0216252 0.400618 -0.0697534)
(-0.0855802 -0.00384707 0.105453 0.00437396 -0.147116 -0.257484 -0.20178 0.38029 -0.0253778)
(-0.0724036 0.00189527 -0.103172 -0.00191782 -0.0980718 -0.079075 0.19613 0.215441 -0.12899)
(-0.0163973 0.00216322 -0.00426114 -0.000798173 -0.103197 -0.0826094 0.0203111 0.226106 -0.175005)
(-0.00180221 0.00153317 0.000977696 -0.000667824 -0.109234 -0.0876368 0.00210765 0.240105 -0.17132)
(-0.000206424 0.000315921 0.000119147 -0.000173998 -0.1104 -0.0888298 0.000340362 0.243613 -0.170637)
(-2.73559e-05 -1.72261e-05 1.20654e-06 4.5824e-06 -0.110422 -0.0888673 6.40005e-05 0.243717 -0.170684)
(-4.48122e-06 -1.65842e-05 -2.58239e-06 1.0055e-05 -0.110202 -0.0886814 6.56477e-05 0.243397 -0.170699)
(-2.0913e-06 3.46073e-07 1.23071e-06 6.69674e-07 -0.110369 -0.0887944 5.07059e-05 0.243533 -0.17071)
(-1.48272e-06 -1.00372e-05 5.92058e-06 6.60904e-06 -0.110178 -0.0886801 -1.10928e-05 0.243405 -0.170696)
(-7.53537e-07 1.50933e-05 -5.57834e-06 -1.09665e-05 -0.110179 -0.0886787 7.41008e-05 0.24339 -0.170703)
(-1.20079e-06 1.07311e-05 -1.96866e-06 3.71847e-06 -0.110394 -0.0888299 6.97281e-05 0.243594 -0.170707)
(-4.66407e-07 -2.1073e-05 8.83577e-06 2.77247e-05 -0.110296 -0.0887373 -3.16879e-05 0.243851 -0.170677)
(7.49091e-08 3.9579e-07 -3.77633e-06 -1.21642e-05 -0.110076 -0.0885739 1.24434e-05 0.243617 -0.170667)
(-1.08639e-06 1.4736e-05 -7.98463e-06 -2.87123e-05 -0.110393 -0.0888018 5.5467e-05 0.243531 -0.17071)
(-7.95123e-07 3.52644e-06 3.8585e-06 9.08849e-06 -0.11037 -0.0888006 -2.8474e-07 0.24326 -0.170691)
(1.215e-07 7.62071e-06 -7.73634e-07 -1.16954e-07 -0.110309 -0.0887535 -2.15276e-06 0.243895 -0.17068)
(-3.77314e-07 -5.28012e-06 -2.48599e-06 -1.27514e-05 -0.110397 -0.0888342 -1.63936e-06 0.243607 -0.170711)
(-2.40492e-07 -2.10071e-06 3.29152e-06 1.24307e-05 -0.110368 -0.0887999 -4.92162e-06 0.243257 -0.170694)
(-1.74737e-07 4.30672e-06 -9.08654e-07 3.3063e-06 -0.110313 -0.0887566 -6.00833e-06 0.2439 -0.170676)
(-7.65608e-07 -1.81967e-05 5.52309e-06 1.38999e-05 -0.110384 -0.0888175 -5.4747e-05 0.243562 -0.170711)
(-7.96783e-07 -1.59058e-05 6.05046e-06 1.20628e-05 -0.110083 -0.0885904 -6.18947e-05 0.243675 -0.170666)
(-7.98357e-07 1.66122e-05 -9.96275e-06 -2.49242e-05 -0.110164 -0.0886583 1.9313e-05 0.243345 -0.170691)
(-9.47123e-07 1.9236e-05 -5.86636e-06 -1.53931e-05 -0.110405 -0.0888196 1.56595e-05 0.243564 -0.170713)
(-1.11232e-06 -1.10908e-05 6.4827e-06 8.91686e-06 -0.110397 -0.0888352 -8.19018e-05 0.243609 -0.170708)
(-1.56759e-06 -6.13754e-06 -1.21362e-06 2.65757e-06 -0.110196 -0.0886947 -4.4918e-05 0.243426 -0.170694)
(-5.16979e-06 1.02561e-05 2.10124e-06 -3.41426e-06 -0.110398 -0.0888113 -6.05993e-05 0.243536 -0.170711)
(-2.77209e-05 -1.53221e-06 7.44287e-06 2.13933e-05 -0.110214 -0.0887213 -0.00010965 0.243537 -0.170668)
(-0.000206188 -0.000311806 -0.000124857 0.000164889 -0.110289 -0.0887211 -0.000293939 0.243831 -0.170607)
(-0.00180235 -0.00152539 -0.000980831 0.000650088 -0.109198 -0.0875936 -0.00210847 0.239741 -0.171319)
(-0.0163973 -0.00215513 0.00426078 0.000796761 -0.103195 -0.0826063 -0.020316 0.226098 -0.175003)
(-0.0724024 -0.00189781 0.103172 0.00192031 -0.0980755 -0.0790744 -0.196131 0.21542 -0.128991)
(-0.0763049 -0.00107809 -0.104037 0.00342354 -0.0575538 -0.00938265 0.197529 0.125713 -0.153405)
(-0.0165233 0.00145498 -0.00456768 0.000287884 -0.0602169 -0.0111291 0.0202973 0.132423 -0.201966)
(-0.00180447 0.00104124 0.000797131 -2.20555e-06 -0.063366 -0.0116301 0.00193897 0.141065 -0.199928)
(-0.000186589 0.000229393 7.85658e-05 -3.29508e-05 -0.0641021 -0.0117949 0.000260431 0.143583 -0.199627)
(-1.85299e-05 7.48888e-07 1.27069e-06 -2.51431e-06 -0.0641041 -0.0118059 0.00011136 0.143681 -0.199687)
(-4.67952e-06 -1.26192e-05 -5.32928e-07 2.30775e-06 -0.0639983 -0.0118166 7.04276e-05 0.143911 -0.199648)
(-2.01759e-06 3.4837e-06 -9.36265e-09 8.81768e-07 -0.0640743 -0.0117936 5.01791e-05 0.143546 -0.199696)
(-2.28668e-06 6.93056e-06 4.31617e-06 2.0334e-06 -0.0639919 -0.0118335 3.99107e-05 0.144122 -0.199667)
(-1.50428e-06 -3.27544e-06 -4.53809e-06 -2.44276e-06 -0.0640003 -0.0118255 2.04782e-05 0.1441 -0.199671)
(1.18228e-06 -5.93819e-06 -2.94148e-06 3.85111e-07 -0.0640766 -0.0117964 2.16288e-05 0.143591 -0.199701)
(-7.59779e-07 -8.19034e-07 6.60502e-06 7.26801e-06 -0.064065 -0.011813 3.04601e-05 0.143557 -0.199688)
(-3.43923e-06 -1.72333e-06 8.87388e-07 -3.67135e-06 -0.0639771 -0.0118413 8.59708e-06 0.144079 -0.199649)
(-3.43422e-07 1.24016e-06 -4.00377e-06 -8.12734e-06 -0.0640561 -0.0117851 -3.59271e-05 0.143359 -0.199657)
(1.36491e-06 4.79498e-06 -1.18927e-06 2.89331e-06 -0.0640079 -0.0117994 2.34442e-06 0.1436 -0.199683)
(-9.41993e-07 6.34163e-07 -2.75888e-06 4.08187e-07 -0.06407 -0.0118126 2.69069e-05 0.143589 -0.199691)
(-1.22467e-07 1.01904e-06 1.55075e-06 -3.15478e-06 -0.0640783 -0.0117988 -3.55849e-05 0.143606 -0.199703)
(1.04394e-06 -1.63941e-06 1.07399e-06 2.56302e-06 -0.0640076 -0.0118003 -6.92875e-07 0.143598 -0.199686)
(2.9999e-07 -1.70734e-06 -1.99567e-06 2.2794e-06 -0.0640721 -0.0118128 2.51187e-05 0.143588 -0.199691)
(-4.18885e-07 1.17918e-06 5.02207e-06 3.49232e-06 -0.0640704 -0.0117906 6.51727e-07 0.143566 -0.1997)
(-3.12185e-06 2.94542e-06 5.26832e-06 2.66281e-06 -0.0639811 -0.011847 -7.06459e-06 0.144095 -0.199653)
(-2.73855e-06 -4.66968e-06 -5.30356e-06 -6.37114e-06 -0.0639824 -0.0118285 -3.76141e-05 0.144105 -0.199657)
(1.07572e-06 -5.75994e-07 -5.85923e-06 -4.51856e-06 -0.0640673 -0.0117854 -4.09665e-05 0.143378 -0.199683)
(1.20562e-07 7.14761e-06 2.98165e-06 3.0451e-06 -0.0640768 -0.0117985 -2.90997e-05 0.143607 -0.199703)
(-2.37277e-06 -7.33716e-06 6.39981e-07 -6.07713e-07 -0.064011 -0.0118322 -4.29412e-05 0.14412 -0.199667)
(-4.02137e-06 8.4681e-06 1.5446e-06 -3.81049e-07 -0.0640716 -0.0117827 -6.15999e-05 0.143355 -0.199676)
(-2.02211e-05 -2.59796e-07 4.62734e-06 9.52972e-06 -0.0640238 -0.0118381 -9.71812e-05 0.144209 -0.19965)
(-0.000188775 -0.000235325 -8.06938e-05 3.06085e-05 -0.0640791 -0.0118067 -0.000297243 0.143521 -0.199609)
(-0.00180353 -0.00103597 -0.00079875 -2.53393e-06 -0.0632929 -0.0116222 -0.00195106 0.141018 -0.199916)
(-0.016522 -0.00145508 0.0045643 -0.000288862 -0.0602148 -0.0111279 -0.0202729 0.132418 -0.201963)
(-0.076302 0.00107339 0.104035 -0.00341841 -0.0575631 -0.00937923 -0.197526 0.125684 -0.153407)
(-0.0818779 -0.00282247 -0.107652 0.00645337 -0.0351664 0.00543971 0.20439 0.076378 -0.154295)
(-0.0170825 0.00100079 -0.00471062 0.000759701 -0.0372327 0.00345648 0.0209856 0.0810766 -0.205378)
(-0.00186638 0.000756135 0.000844528 0.000233765 -0.0391077 0.00393204 0.00213096 0.0872844 -0.203493)
(-0.000206486 0.000168305 8.39839e-05 3.25971e-05 -0.0396307 0.00401792 0.000296195 0.0889554 -0.203202)
(-2.03042e-05 3.53254e-06 -3.12958e-06 -5.0638e-06 -0.0396399 0.00401801 8.6102e-05 0.0890481 -0.203268)
(-3.802e-06 -1.06303e-05 -1.18575e-07 -2.88123e-06 -0.0395808 0.00398836 7.1102e-05 0.0888711 -0.203236)
(-2.14617e-06 1.62898e-06 -2.13829e-06 9.06192e-07 -0.039605 0.00401562 6.92369e-05 0.0888191 -0.203264)
(-2.14763e-06 4.76026e-06 -4.60783e-07 -1.68084e-06 -0.0396222 0.00398593 3.86208e-05 0.0890174 -0.203286)
(-1.0832e-06 -1.84813e-06 1.82697e-06 2.84436e-06 -0.0396165 0.00399154 2.32296e-05 0.0888647 -0.203249)
(7.4136e-07 -2.21492e-06 5.31457e-07 2.88835e-06 -0.0396145 0.00401642 2.29331e-05 0.0889862 -0.20328)
(-1.2777e-06 -1.17536e-06 -1.35771e-07 -2.79359e-06 -0.0396095 0.00401102 2.96587e-05 0.0889648 -0.203277)
(-3.00416e-06 2.17868e-06 1.79866e-06 -6.68245e-07 -0.039614 0.00398057 -1.0874e-05 0.0889777 -0.203254)
(2.26543e-07 8.56208e-06 3.88056e-07 3.32709e-06 -0.0395689 0.00400161 -7.56437e-06 0.0890027 -0.20326)
(9.11982e-07 7.43507e-07 -1.64491e-06 1.32237e-06 -0.0395899 0.00399305 2.2521e-05 0.0893408 -0.203286)
(-1.08812e-06 -6.45583e-06 -6.56038e-07 -5.00178e-07 -0.0396074 0.00401098 -8.28325e-07 0.0889932 -0.203279)
(5.36521e-08 7.20456e-06 -2.89882e-08 9.92853e-07 -0.0396158 0.00401348 -7.60146e-06 0.0890019 -0.203284)
(8.46343e-07 -8.61115e-07 4.95091e-07 -3.54878e-07 -0.0395907 0.00399299 -9.49137e-07 0.0893381 -0.203289)
(1.11239e-08 -8.24554e-06 1.02784e-06 -2.16017e-07 -0.0396076 0.00401081 -1.55883e-06 0.0889927 -0.20328)
(-6.88926e-07 1.92255e-08 -1.31714e-06 -3.14871e-06 -0.0396114 0.00401894 -1.5196e-06 0.0889655 -0.203258)
(-2.76948e-06 1.69668e-06 -1.53108e-06 -3.19527e-06 -0.0396158 0.0039803 -9.89867e-06 0.0889997 -0.20328)
(-2.23463e-06 -6.4411e-07 2.36663e-06 2.88155e-06 -0.0396176 0.00398459 -5.50224e-05 0.0889985 -0.203261)
(9.36127e-07 3.52004e-07 1.46624e-07 2.79962e-06 -0.0395797 0.00401272 -3.98638e-05 0.0889796 -0.203252)
(-3.30148e-07 1.81793e-07 -2.87242e-06 -2.70353e-06 -0.0396121 0.00401453 -1.09934e-05 0.0890058 -0.203284)
(-2.25282e-06 -5.09969e-06 1.93633e-06 -2.58152e-06 -0.0396214 0.0039913 -6.30052e-05 0.0888732 -0.20327)
(-3.1423e-06 7.6841e-06 9.04886e-07 2.03578e-06 -0.0395742 0.00401282 -6.18865e-05 0.0888271 -0.203228)
(-2.1523e-05 -3.04561e-06 2.64353e-06 3.43457e-06 -0.0396475 0.00398906 -7.28415e-05 0.0890745 -0.203264)
(-0.000208601 -0.000165621 -8.1664e-05 -2.97635e-05 -0.039617 0.00401104 -0.000301793 0.0889112 -0.203192)
(-0.00186625 -0.000752517 -0.000845067 -0.000232503 -0.0390838 0.00391274 -0.0021456 0.0875885 -0.203466)
(-0.0170805 -0.00100917 0.00470937 -0.000762028 -0.0372312 0.00345677 -0.0209917 0.0810734 -0.205375)
(-0.0818822 0.00281394 0.107649 -0.00644343 -0.035157 0.00544517 -0.204382 0.0762189 -0.15428)
(-0.0860585 -0.00311444 -0.112078 0.00667135 -0.022058 0.00482872 0.212816 0.0479392 -0.152288)
(-0.0177672 0.000666732 -0.00486921 0.000874753 -0.023578 0.00285459 0.0219719 0.0506926 -0.205729)
(-0.00194989 0.000561651 0.000909419 0.00026332 -0.0249318 0.00331626 0.00240857 0.0554669 -0.203766)
(-0.000234355 0.000122945 9.57592e-05 4.96754e-05 -0.0252869 0.00340421 0.000325237 0.0565169 -0.203435)
(-2.56256e-05 1.07246e-05 -4.64161e-06 5.81546e-08 -0.025288 0.0034069 8.57397e-05 0.0564944 -0.203495)
(-3.48552e-06 -5.64254e-06 -1.01192e-06 -3.81807e-06 -0.0252438 0.00338911 4.91427e-05 0.0568008 -0.203526)
(-1.77751e-06 -4.7923e-06 -4.95303e-07 -8.82016e-07 -0.0252444 0.0033996 6.53294e-05 0.0564364 -0.203504)
(-1.89905e-06 4.64661e-06 -4.98671e-07 -1.81298e-07 -0.025282 0.00340777 3.63664e-05 0.0565777 -0.203529)
(-5.90441e-07 -1.74244e-06 1.55963e-06 1.42546e-06 -0.0252557 0.00339976 2.59673e-05 0.0565883 -0.203517)
(5.46902e-08 -4.54755e-06 9.53891e-07 1.40194e-07 -0.0252848 0.00340234 4.14213e-05 0.0565624 -0.203503)
(-1.4711e-06 -7.23919e-07 -5.64513e-07 -3.40958e-06 -0.0252666 0.00340188 2.52462e-05 0.0564413 -0.203507)
(-2.21509e-06 6.4028e-06 -9.94792e-07 1.5388e-06 -0.0252823 0.00340503 8.30318e-06 0.0565603 -0.203512)
(5.47009e-08 6.06359e-06 -1.50815e-06 3.77564e-06 -0.0252722 0.00338472 -3.73197e-06 0.0567758 -0.203531)
(5.99457e-07 -2.90403e-06 6.84521e-07 4.70193e-07 -0.0252994 0.00339566 3.85723e-06 0.0566207 -0.203526)
(-1.0079e-06 -4.55174e-06 1.32713e-06 2.65972e-07 -0.025277 0.00340167 2.53162e-07 0.0565704 -0.20352)
(-9.34067e-08 4.35904e-06 -2.04697e-06 7.21595e-07 -0.0252873 0.00340356 -7.00683e-06 0.0565713 -0.203522)
(8.02167e-07 3.42861e-09 5.41097e-07 -6.67552e-07 -0.0253 0.00339649 -2.2777e-06 0.0566173 -0.203529)
(-2.58777e-07 -5.84733e-06 3.19474e-06 -1.04618e-06 -0.0252766 0.00340113 -1.10948e-06 0.0565703 -0.203522)
(-1.01474e-06 -4.61928e-07 -1.08104e-06 -2.97282e-06 -0.0252844 0.00340112 -5.65839e-06 0.0565605 -0.203493)
(-1.9158e-06 1.68943e-06 -1.60213e-06 -1.89771e-06 -0.0252812 0.00340469 -1.36793e-05 0.0565656 -0.203524)
(-1.53957e-06 2.55515e-06 1.18184e-06 2.93749e-06 -0.0252817 0.00340452 -3.04854e-05 0.0565771 -0.203519)
(-4.12962e-08 5.32905e-07 1.28913e-07 3.2241e-06 -0.0252599 0.00338797 -3.51346e-05 0.0566742 -0.203519)
(-9.55667e-07 -1.19567e-06 -1.30241e-06 -1.10718e-06 -0.0252785 0.00340151 -4.94353e-05 0.0565799 -0.203525)
(-1.42491e-06 2.43329e-07 2.97782e-07 -2.2396e-06 -0.0252632 0.00340892 -6.12727e-05 0.0565708 -0.203518)
(-2.81815e-06 3.25077e-06 1.09483e-06 1.73717e-06 -0.0252398 0.00338231 -4.18997e-05 0.0566629 -0.203506)
(-2.65809e-05 -8.82412e-06 4.27193e-06 -7.72101e-07 -0.0253027 0.00340869 -7.56415e-05 0.0566112 -0.203504)
(-0.000235963 -0.000122575 -9.59575e-05 -5.02797e-05 -0.0252853 0.00340699 -0.000328994 0.0564784 -0.203423)
(-0.00194999 -0.00055881 -0.000909605 -0.000260415 -0.0249488 0.00330313 -0.00241756 0.0555076 -0.203761)
(-0.0177642 -0.000669727 0.00487079 -0.000874002 -0.0235773 0.0028551 -0.0219986 0.0506889 -0.205727)
(-0.0860654 0.0031094 0.112053 -0.00666237 -0.022026 0.00482599 -0.212766 0.0479222 -0.152278)
(-0.088743 -0.00259487 -0.115938 0.00539152 -0.0139503 0.00256126 0.220173 0.0303725 -0.151261)
(-0.0183641 0.000426025 -0.00501311 0.000792332 -0.0148824 0.00098782 0.0229182 0.0317682 -0.206543)
(-0.0020314 0.000414357 0.000954451 0.000225432 -0.0159394 0.00130452 0.00266869 0.0350667 -0.20448)
(-0.000259139 9.70667e-05 0.000102111 5.03818e-05 -0.0161925 0.00135439 0.000364581 0.0360741 -0.204177)
(-3.10029e-05 1.21506e-05 -6.14919e-06 3.60079e-06 -0.0161812 0.00135535 0.000102893 0.0361548 -0.204246)
(-3.99004e-06 -1.91138e-06 -1.57829e-06 -3.09771e-06 -0.0161987 0.00134837 6.1864e-05 0.0363205 -0.204286)
(-1.41882e-06 -5.99937e-06 1.59409e-06 -1.72266e-06 -0.0161535 0.00134639 4.8163e-05 0.0361744 -0.204265)
(-1.68613e-06 2.49122e-06 -4.29251e-07 5.69016e-07 -0.0161936 0.00135804 5.01432e-05 0.0361383 -0.204273)
(-1.0189e-06 -2.41836e-06 7.40292e-07 -9.26786e-07 -0.0161861 0.00134963 2.6644e-05 0.0362886 -0.204284)
(-2.25648e-07 -4.39222e-06 9.56427e-07 -1.34607e-06 -0.016186 0.0013489 1.00098e-05 0.0360442 -0.204259)
(-9.97978e-07 -6.78176e-07 4.02901e-07 -2.59954e-06 -0.0161653 0.00134897 2.17833e-05 0.0361246 -0.204262)
(-1.56712e-06 1.06477e-06 -1.6337e-06 -7.93575e-07 -0.0161878 0.00135249 2.35648e-05 0.0360362 -0.204236)
(1.28213e-08 5.15321e-06 -1.4864e-06 4.524e-06 -0.0162055 0.00135134 2.1199e-07 0.0360598 -0.204261)
(2.10049e-07 -2.15485e-07 1.74443e-06 1.92754e-06 -0.0162058 0.00136082 5.18923e-06 0.0361611 -0.204271)
(-1.03784e-06 -4.04157e-06 9.24342e-07 -1.04956e-06 -0.0161923 0.00135306 9.66484e-07 0.0361329 -0.204266)
(-1.33053e-07 2.61086e-06 -1.06397e-06 1.10101e-06 -0.0161899 0.0013539 -6.40912e-06 0.0360391 -0.204257)
(4.92789e-07 1.28415e-06 8.42913e-09 3.40311e-07 -0.0162058 0.00136157 -3.08172e-06 0.036157 -0.204273)
(-4.49929e-07 -5.12914e-06 1.95349e-06 -3.37937e-06 -0.0161917 0.00135283 -2.77464e-06 0.0361346 -0.204269)
(-8.59233e-07 -9.11541e-07 -6.03659e-07 -2.06315e-06 -0.0161893 0.00134375 -8.39852e-06 0.0360449 -0.204237)
(-1.58741e-06 2.23085e-06 -8.49995e-07 4.53748e-07 -0.0161984 0.00135826 -1.44998e-05 0.036126 -0.204268)
(-1.21027e-06 3.62161e-06 -9.77527e-07 2.3024e-06 -0.0162014 0.00135645 -4.27916e-05 0.0361338 -0.204248)
(1.27193e-07 9.83398e-07 -4.57223e-07 2.78646e-06 -0.0161824 0.00134611 -3.21211e-05 0.0361638 -0.204271)
(-1.42289e-06 -4.8468e-07 1.31705e-06 -3.40953e-07 -0.0161924 0.00135264 -1.81167e-05 0.036141 -0.204273)
(-1.68395e-06 2.63989e-06 -1.9018e-06 -1.29693e-06 -0.0161834 0.00135228 -6.14871e-05 0.0361923 -0.204252)
(-2.8488e-06 -2.065e-07 8.5856e-07 1.06221e-06 -0.0161746 0.00134036 -5.68896e-05 0.0362083 -0.204266)
(-3.19263e-05 -1.21289e-05 7.57813e-06 -4.40292e-06 -0.0162119 0.00135989 -7.96561e-05 0.0361534 -0.204246)
(-0.000260529 -9.48466e-05 -0.000102775 -4.98959e-05 -0.0161881 0.00135454 -0.000386379 0.0359563 -0.204135)
(-0.00203099 -0.000410935 -0.000955445 -0.00022229 -0.0159478 0.00130988 -0.00267223 0.0350791 -0.204496)
(-0.0183609 -0.000424611 0.00501394 -0.000790847 -0.0148822 0.000989364 -0.0229241 0.0317638 -0.20654)
(-0.0887421 0.00259836 0.11591 -0.00539311 -0.0139378 0.00255406 -0.220118 0.0305105 -0.151265)
(-0.0904003 -0.00185959 -0.118769 0.00378947 -0.00882063 0.00124346 0.225573 0.0192342 -0.150982)
(-0.0188004 0.000268923 -0.00512056 0.000627576 -0.00929859 0.00014833 0.0236872 0.0198347 -0.207534)
(-0.00209828 0.000299637 0.000982733 0.000176087 -0.0101 0.000350356 0.00287014 0.0222767 -0.20547)
(-0.000278721 7.45821e-05 0.000105924 4.2009e-05 -0.0103126 0.000378357 0.000442603 0.0229575 -0.205148)
(-3.63215e-05 9.48074e-06 -5.84516e-06 4.10223e-06 -0.01032 0.000378045 0.000108339 0.0231454 -0.205217)
(-4.55021e-06 -1.15592e-07 -2.80242e-06 -1.88649e-06 -0.0103372 0.000384911 4.49351e-05 0.0230534 -0.205249)
(-1.04416e-06 -3.76631e-06 1.43877e-06 -1.62525e-06 -0.0103012 0.000372201 4.78912e-05 0.0231445 -0.205235)
(-1.73987e-06 -1.8563e-06 1.4862e-07 -9.15097e-07 -0.0103185 0.000379031 4.87004e-05 0.0230179 -0.205248)
(-9.73458e-07 -2.33641e-07 -2.69534e-07 -2.77505e-07 -0.0103281 0.000379416 1.2063e-05 0.0230342 -0.20525)
(-2.7986e-07 -3.91419e-07 8.22194e-07 -7.13328e-09 -0.0102966 0.000374188 2.42506e-05 0.0230184 -0.205245)
(-1.3606e-06 -1.07949e-06 1.53371e-07 -2.45927e-06 -0.0103067 0.000373579 1.91511e-05 0.0231268 -0.205253)
(-7.90382e-07 -1.64424e-06 -5.20994e-07 -1.86379e-06 -0.0103019 0.000371767 -5.94452e-06 0.0230164 -0.205235)
(5.98924e-07 2.45924e-06 1.59689e-07 3.30873e-06 -0.0103027 0.000380283 1.79484e-05 0.0229441 -0.205231)
(-5.15255e-07 -2.67879e-07 1.02821e-06 1.31564e-06 -0.0103253 0.000381773 2.04221e-05 0.0230315 -0.205244)
(-1.1732e-06 -1.36526e-06 -5.71077e-08 -4.42208e-07 -0.0103182 0.000376504 -1.3363e-05 0.0230133 -0.205243)
(1.84567e-07 1.65516e-06 -3.4584e-07 1.22548e-06 -0.0102997 0.000375958 -5.2214e-06 0.0230151 -0.205239)
(-9.39082e-08 -3.68224e-07 3.26437e-07 -4.08522e-07 -0.0103252 0.000381848 1.07158e-05 0.0230285 -0.205245)
(-7.39469e-07 -2.54404e-06 -3.68377e-07 -2.86449e-06 -0.0103175 0.000377166 -1.95727e-05 0.0230142 -0.205244)
(-2.48113e-07 -1.78252e-06 4.0122e-09 -2.08584e-06 -0.0103036 0.000368073 -9.98943e-06 0.0230188 -0.20524)
(-1.04269e-06 -7.17012e-07 9.36993e-07 -1.02118e-06 -0.010314 0.000377649 -3.36082e-07 0.0229264 -0.205233)
(-1.07303e-06 5.74661e-06 -1.24825e-06 3.87978e-06 -0.0103209 0.000373761 -2.59229e-05 0.0229416 -0.205217)
(-5.69967e-07 2.33317e-06 -6.31321e-07 3.65427e-06 -0.0103185 0.000379727 -2.93397e-05 0.0231485 -0.205257)
(-1.77235e-06 -1.39306e-06 -6.76456e-08 -1.25511e-06 -0.0103178 0.000377373 -4.76214e-05 0.0230202 -0.205249)
(-1.14428e-06 3.78908e-06 -2.15945e-06 2.54696e-07 -0.0103102 0.000373233 -6.10413e-05 0.0230425 -0.205242)
(-3.43935e-06 -2.45782e-06 2.61734e-06 -2.68505e-07 -0.0103057 0.00037701 -4.14482e-05 0.0230774 -0.205241)
(-3.67725e-05 -1.15168e-05 7.10771e-06 -6.08276e-06 -0.0103222 0.000379163 -9.96312e-05 0.0229416 -0.20521)
(-0.00027954 -6.9756e-05 -0.000105961 -3.85106e-05 -0.0103006 0.000369693 -0.00044779 0.0229488 -0.205114)
(-0.00209818 -0.000297634 -0.000982639 -0.000173872 -0.0101054 0.000357495 -0.00286222 0.0222766 -0.205465)
(-0.0187984 -0.000267723 0.00511963 -0.000627856 -0.00929972 0.000151447 -0.0236919 0.0198273 -0.207529)
(-0.0903955 0.00186603 0.118755 -0.00379851 -0.00882752 0.00124164 -0.225547 0.0192595 -0.150986)
(-0.0914191 -0.00121565 -0.12064 0.00244182 -0.00556875 0.000652377 0.229143 0.0121465 -0.150957)
(-0.0190868 0.000170152 -0.00519173 0.000452328 -0.00576952 -5.17259e-05 0.0242839 0.0123488 -0.208326)
(-0.00214851 0.000211561 0.00100046 0.000132991 -0.00637946 7.49778e-05 0.00302796 0.0141547 -0.206271)
(-0.000293535 5.30613e-05 0.000107649 3.04032e-05 -0.00653797 9.1997e-05 0.000465089 0.0145595 -0.205942)
(-3.9782e-05 7.219e-06 -4.83834e-06 3.68069e-06 -0.0065595 9.04471e-05 0.000111896 0.0146367 -0.206008)
(-5.13553e-06 1.85669e-06 -2.7471e-06 2.79698e-07 -0.00655818 9.90912e-05 5.70429e-05 0.0146327 -0.206042)
(-1.22454e-06 -2.25807e-06 4.17986e-07 -1.62937e-06 -0.00655246 9.23804e-05 4.55559e-05 0.0147306 -0.206052)
(-1.41658e-06 -2.89548e-06 1.0138e-06 -1.30078e-06 -0.00654603 9.17501e-05 3.44663e-05 0.0146122 -0.206045)
(-8.37304e-07 1.95934e-06 -2.28249e-07 1.14966e-06 -0.0065517 9.65473e-05 2.63421e-05 0.0146203 -0.206046)
(-6.62001e-07 -1.0293e-07 -2.1108e-07 -4.32368e-07 -0.00653844 9.3307e-05 2.39507e-05 0.0147092 -0.20605)
(-1.36931e-06 -1.73397e-06 -8.12673e-08 -2.7253e-06 -0.00654976 9.21793e-05 1.65786e-05 0.0146194 -0.206044)
(-4.13517e-07 1.85734e-06 -2.92768e-07 9.39241e-07 -0.00653393 8.69394e-05 -5.68264e-06 0.0146358 -0.206041)
(6.48705e-07 4.64718e-07 5.14714e-07 1.87343e-06 -0.00652728 9.07653e-05 6.53229e-06 0.0147195 -0.206043)
(-5.4014e-07 -3.30944e-06 9.88535e-07 -1.44071e-06 -0.00654939 9.26399e-05 1.98605e-05 0.014621 -0.206041)
(-1.05587e-06 1.089e-06 -2.38597e-07 7.80276e-07 -0.00654681 8.92542e-05 4.34183e-07 0.0146084 -0.206042)
(-1.26316e-07 1.19795e-06 4.93633e-09 1.17235e-06 -0.00653974 9.1665e-05 -3.9842e-06 0.014708 -0.206048)
(-3.25206e-07 -2.28347e-06 2.5007e-07 -1.62999e-06 -0.0065492 9.2365e-05 -3.84241e-06 0.0146187 -0.206043)
(-7.85392e-07 -7.9346e-07 -8.01493e-07 -1.84743e-06 -0.00654536 9.05386e-05 -7.1799e-06 0.0146095 -0.206042)
(-4.90571e-07 -2.04553e-07 -5.07099e-07 -6.77744e-07 -0.00653904 8.91553e-05 -2.43152e-05 0.0146307 -0.206042)
(-3.94292e-07 -1.2387e-06 2.87623e-07 -1.25796e-06 -0.00652966 8.75045e-05 -2.90162e-05 0.0146084 -0.206035)
(-2.75178e-07 2.71911e-06 -5.62007e-07 2.24644e-06 -0.00652613 8.2972e-05 -9.76596e-06 0.0145439 -0.206032)
(-8.99784e-07 1.61373e-06 2.65012e-07 3.01977e-06 -0.00655679 9.54512e-05 -1.29157e-05 0.0146324 -0.206046)
(-2.1028e-06 1.18013e-06 1.83643e-08 6.11685e-07 -0.00654551 9.17288e-05 -3.42435e-05 0.0146142 -0.206046)
(-1.48663e-06 5.05949e-06 -1.97432e-06 2.34405e-06 -0.00654586 9.29679e-05 -5.9859e-05 0.0147254 -0.206052)
(-4.11629e-06 -2.6106e-06 2.04457e-06 -8.94442e-07 -0.00654165 9.65501e-05 -6.833e-05 0.0147387 -0.206044)
(-3.95747e-05 -1.11274e-05 6.11477e-06 -7.36811e-06 -0.00653388 8.99402e-05 -9.19152e-05 0.0146169 -0.206011)
(-0.000294087 -5.14896e-05 -0.000107109 -2.89767e-05 -0.0065327 8.31117e-05 -0.000452355 0.0145751 -0.205933)
(-0.00214886 -0.000210751 -0.000999094 -0.00013107 -0.00638373 7.74998e-05 -0.00303296 0.0141532 -0.206263)
(-0.0190858 -0.00016903 0.00519077 -0.000452338 -0.00577186 -5.23443e-05 -0.0242908 0.0123468 -0.2083)
(-0.0914158 0.00122158 0.120632 -0.0024506 -0.00557306 0.000656951 -0.229129 0.0121601 -0.150962)
(-0.0920465 -0.000750495 -0.1218 0.00149048 -0.00351593 0.000380289 0.231355 0.00765008 -0.150981)
(-0.0192622 0.000106782 -0.00523604 0.000302694 -0.00357487 -5.15739e-05 0.0246825 0.00768366 -0.208849)
(-0.00218267 0.000145948 0.00101148 9.83092e-05 -0.00402836 2.86752e-05 0.00314715 0.00885665 -0.206796)
(-0.000304583 3.85747e-05 0.000109018 2.29259e-05 -0.00413982 3.70972e-05 0.000492466 0.00921236 -0.206478)
(-4.23462e-05 5.43858e-06 -4.42631e-06 3.19063e-06 -0.00415748 3.68396e-05 0.000113141 0.00926943 -0.20656)
(-5.61222e-06 1.29118e-06 -2.41578e-06 5.61591e-07 -0.00415595 3.9509e-05 5.6748e-05 0.00926889 -0.20658)
(-1.36026e-06 -1.33616e-06 -2.94427e-08 -1.22163e-06 -0.00416115 4.20329e-05 4.41703e-05 0.00927516 -0.206586)
(-1.18407e-06 -1.70342e-06 9.81996e-07 -8.01191e-07 -0.00414846 3.67114e-05 3.41908e-05 0.00925584 -0.206585)
(-7.99776e-07 1.28377e-06 4.18474e-08 4.64399e-07 -0.00415144 3.86324e-05 2.71173e-05 0.0092607 -0.206583)
(-1.05485e-06 -3.84171e-09 -5.13909e-08 -4.59445e-07 -0.00415485 3.98524e-05 2.35244e-05 0.0092675 -0.20657)
(-1.08628e-06 -1.77085e-07 -1.12016e-06 -9.90358e-07 -0.00415075 4.03871e-05 1.54372e-06 0.00926025 -0.206581)
(1.29363e-07 2.85226e-06 -8.03808e-07 1.87717e-06 -0.0041392 3.54847e-05 8.70291e-06 0.00926881 -0.206578)
(1.22934e-07 -6.33353e-07 1.2998e-06 6.25215e-07 -0.00415142 3.82979e-05 2.09283e-05 0.00935926 -0.206586)
(-7.33885e-07 -4.17416e-06 7.26008e-07 -2.66342e-06 -0.00415016 3.68325e-05 5.24871e-06 0.00926238 -0.20658)
(-6.5059e-07 5.65795e-07 -2.52088e-07 1.13027e-07 -0.00415241 3.59257e-05 5.66129e-07 0.00925156 -0.206581)
(-2.97485e-07 1.17666e-06 2.76312e-07 1.25795e-06 -0.00415461 3.72513e-05 -2.97185e-06 0.00926798 -0.206571)
(-6.97864e-07 -1.49336e-06 1.01158e-07 -9.18018e-07 -0.00414964 3.65716e-05 -4.7621e-06 0.00926084 -0.206583)
(-5.4902e-07 -5.10341e-07 -1.01032e-06 -1.71585e-06 -0.00414861 3.4484e-05 -2.11966e-05 0.00925455 -0.206582)
(-1.3022e-07 1.35868e-06 -6.02805e-07 7.07836e-07 -0.00413637 3.45903e-05 -1.07324e-05 0.00919773 -0.206558)
(-4.5785e-07 1.86363e-06 -2.99669e-07 1.68751e-06 -0.0041466 3.54247e-05 -1.58811e-05 0.00933967 -0.206584)
(-2.17483e-07 3.19573e-07 3.41089e-07 8.01454e-07 -0.00412962 3.18084e-05 -2.18019e-05 0.00935105 -0.206584)
(-8.96918e-07 -1.54251e-06 1.12004e-06 9.7858e-08 -0.00415483 4.14293e-05 -1.18395e-05 0.00926854 -0.206583)
(-1.90749e-06 7.93132e-07 -5.64311e-07 4.17331e-07 -0.00414809 3.72211e-05 -3.39334e-05 0.00925817 -0.206585)
(-1.4455e-06 4.5612e-06 -1.19519e-06 2.88445e-06 -0.00415829 3.9893e-05 -4.48418e-05 0.00927438 -0.206585)
(-5.38178e-06 -6.11331e-08 2.01181e-06 5.25425e-07 -0.00416082 4.41946e-05 -5.49602e-05 0.00936806 -0.206583)
(-4.2389e-05 -9.72614e-06 4.42003e-06 -7.22539e-06 -0.00414601 3.62623e-05 -0.000124129 0.00934569 -0.20656)
(-0.000304281 -3.97261e-05 -0.000108449 -2.39084e-05 -0.00412926 3.12879e-05 -0.000493125 0.00914516 -0.206463)
(-0.00218285 -0.000145467 -0.00100973 -9.6528e-05 -0.00403115 2.80234e-05 -0.00313673 0.00885456 -0.206787)
(-0.0192623 -0.000105589 0.00523552 -0.000302058 -0.00357566 -5.59318e-05 -0.0246856 0.00768238 -0.208843)
(-0.0920453 0.000755416 0.121798 -0.00149727 -0.00351657 0.000384837 -0.231352 0.00765872 -0.150983)
(-0.0924321 -0.000447501 -0.122491 0.000881352 -0.00222655 0.000235623 0.232674 0.00480084 -0.151004)
(-0.0193652 6.7668e-05 -0.00526205 0.000192852 -0.00222315 -2.49753e-05 0.0249397 0.00478117 -0.209169)
(-0.00220446 9.8573e-05 0.00101819 7.06404e-05 -0.0025418 2.55294e-05 0.00323387 0.00556208 -0.207125)
(-0.000312559 2.7236e-05 0.000109282 1.68023e-05 -0.00262683 2.84734e-05 0.000513508 0.00581606 -0.206814)
(-4.42549e-05 3.99169e-06 -4.35599e-06 2.52244e-06 -0.00264488 2.75945e-05 0.000118004 0.0058601 -0.206888)
(-6.01798e-06 1.12354e-06 -1.70845e-06 9.99366e-07 -0.00264018 2.86071e-05 5.66225e-05 0.00585836 -0.206919)
(-1.49709e-06 -7.59126e-07 -1.41532e-07 -7.91329e-07 -0.00264278 3.28809e-05 4.30867e-05 0.0058608 -0.206923)