/*--------------------------------*- C++ -*----------------------------------*\
| =========                 |                                                 |
| \\      /  F ield         | OpenFOAM: The Open Source CFD Toolbox           |
|  \\    /   O peration     | Version:  2106                                  |
|   \\  /    A nd           | Website:  www.openfoam.com                      |
|    \\/     M anipulation  |                                                 |
\*---------------------------------------------------------------------------*/
FoamFile
{
    version     2.0;
    format      ascii;
    arch        "LSB;label=32;scalar=64";
    class       surfaceVectorField;
    location    "15";
    object      epsilonResidual;
}
// * * * * * * * * * * * * * * * * * * * * * * * * * * * * * * * * * * * * * //

dimensions      [0 0 0 0 0 0 0];

internalField   nonuniform List<vector> 3((4.64566e-310 0 8.84487e-72) (2.13276e-81 1.40602e+161 3.28534e-85) (4.26137e+257 4.99006e-322 0));

boundaryField
{
    bottom
    {
        type            calculated;
        value           uniform (4.64566e-310 0 2.83631e-310);
    }
    top
    {
        type            calculated;
        value           uniform (0 0 5.30499e-313);
    }
    frontAndBack
    {
        type            empty;
        value           nonuniform List<vector> 0();
    }
    left
    {
        type            empty;
        value           nonuniform List<vector> 0();
    }
    right
    {
        type            empty;
        value           nonuniform List<vector> 0();
    }
}


// ************************************************************************* //
