/*--------------------------------*- C++ -*----------------------------------*\
| =========                 |                                                 |
| \\      /  F ield         | OpenFOAM: The Open Source CFD Toolbox           |
|  \\    /   O peration     | Version:  2106                                  |
|   \\  /    A nd           | Website:  www.openfoam.com                      |
|    \\/     M anipulation  |                                                 |
\*---------------------------------------------------------------------------*/
FoamFile
{
    version     2.0;
    format      ascii;
    arch        "LSB;label=32;scalar=64";
    class       volVectorField;
    location    "563";
    object      D;
}
// * * * * * * * * * * * * * * * * * * * * * * * * * * * * * * * * * * * * * //

dimensions      [0 1 0 0 0 0 0];

internalField   nonuniform List<vector> 
9000
(
(-0.000349112 -0.00199372 -0.00230309)
(0.000146556 -0.00250455 -0.00216727)
(0.000299738 -0.00201368 -0.00207081)
(0.000325809 -0.00120116 -0.00121687)
(3.41295e-05 -0.000636904 -0.000600182)
(-0.00028128 -0.000702226 -0.000674233)
(-0.00035791 -0.00130296 -0.00127151)
(-0.000166873 -0.00181686 -0.00179126)
(0.000119015 -0.00194036 -0.00189297)
(0.000303397 -0.00147301 -0.00148118)
(0.000225502 -0.000955137 -0.000900117)
(1.94008e-05 -0.000744697 -0.000678157)
(-8.01452e-05 -0.000847045 -0.000838793)
(-8.79038e-05 -0.0010086 -0.000988789)
(-9.01732e-05 -0.00119566 -0.00115511)
(-7.28661e-05 -0.00136319 -0.00129693)
(-5.04528e-05 -0.00151323 -0.00145094)
(7.45549e-05 -0.00156892 -0.00156753)
(0.000214067 -0.00121938 -0.00125667)
(0.000105026 -0.000834552 -0.000792916)
(-0.000168092 -0.000847806 -0.000773685)
(-0.000310129 -0.00134322 -0.00129506)
(-0.000194109 -0.00181032 -0.00186183)
(8.703e-05 -0.0019187 -0.0020861)
(0.000271379 -0.00166555 -0.00169754)
(0.000192248 -0.00129571 -0.00133016)
(-6.12604e-05 -0.00118367 -0.00117036)
(-0.000299076 -0.00132491 -0.00138117)
(-0.000373342 -0.00131137 -0.00135252)
(-0.000468366 -0.000437173 -0.00048212)
(-0.000199989 -0.00137748 -0.0011207)
(0.000133159 -0.00186787 -0.000997452)
(0.000192877 -0.00135812 -0.00101136)
(0.000183598 -0.000814139 -0.00059003)
(-1.72426e-05 -0.00044184 -0.000291307)
(-0.000212056 -0.000485006 -0.000335474)
(-0.000238522 -0.000907825 -0.000612838)
(-0.000106324 -0.001278 -0.000827136)
(7.91885e-05 -0.00135365 -0.000922262)
(0.00020584 -0.00100687 -0.000734019)
(0.000147747 -0.00067595 -0.000429975)
(8.33753e-06 -0.00053369 -0.000321715)
(-5.03036e-05 -0.000583908 -0.000411305)
(-5.42265e-05 -0.000708866 -0.000467901)
(-5.75686e-05 -0.000834131 -0.000568028)
(-3.80807e-05 -0.000958341 -0.00063095)
(-3.0049e-05 -0.00107192 -0.000682923)
(4.54365e-05 -0.00107794 -0.000777568)
(0.000142264 -0.000822692 -0.000630137)
(6.48069e-05 -0.000585023 -0.000384124)
(-0.000114534 -0.000600414 -0.000372465)
(-0.000198983 -0.000935637 -0.000623336)
(-0.000121805 -0.00123987 -0.000870176)
(6.30498e-05 -0.00125468 -0.00103422)
(0.000195937 -0.00111787 -0.000858445)
(0.000142169 -0.000862679 -0.000668471)
(-6.19318e-05 -0.00080609 -0.000574222)
(-0.000292814 -0.000875683 -0.000704411)
(-0.000435487 -0.000886153 -0.00070583)
(-0.000631992 -0.000298013 -5.69156e-05)
(-5.15211e-05 -0.00112757 -0.00054534)
(0.000115905 -0.00155721 -0.000589347)
(0.000111361 -0.00108144 -0.00055778)
(6.23319e-05 -0.000651693 -0.000318479)
(-5.90451e-05 -0.000359158 -0.000161845)
(-0.000149036 -0.000390501 -0.000192957)
(-0.000133566 -0.000734052 -0.000341262)
(-5.64313e-05 -0.00105904 -0.000429204)
(4.28355e-05 -0.00109037 -0.000527905)
(0.00012083 -0.000807922 -0.000415826)
(7.86875e-05 -0.000558813 -0.00023799)
(-1.23236e-06 -0.000438917 -0.000180412)
(-2.40421e-05 -0.000469824 -0.000232558)
(-2.55924e-05 -0.000586372 -0.000253403)
(-2.97452e-05 -0.000672301 -0.000328678)
(-8.03159e-06 -0.000777229 -0.000361585)
(-1.34905e-05 -0.000886807 -0.000371066)
(2.04943e-05 -0.00086107 -0.000450133)
(8.02471e-05 -0.000655376 -0.000359581)
(2.98395e-05 -0.000479043 -0.000215919)
(-6.69975e-05 -0.000485843 -0.000211434)
(-9.78946e-05 -0.000751756 -0.0003476)
(-5.31793e-05 -0.00101109 -0.000443124)
(3.88091e-05 -0.000982466 -0.000556088)
(0.000124359 -0.000869197 -0.000496831)
(9.57256e-05 -0.00067594 -0.000379373)
(-6.50452e-05 -0.000641501 -0.000322217)
(-0.000288857 -0.000676079 -0.000414355)
(-0.000477105 -0.000688026 -0.000445825)
(-0.000777977 -0.000272099 0.000205082)
(8.88252e-05 -0.00104334 -0.000201666)
(0.000101812 -0.00135502 -0.000397573)
(4.74326e-05 -0.000962341 -0.000316919)
(-3.02507e-05 -0.000586885 -0.000172651)
(-8.77847e-05 -0.000328155 -9.27529e-05)
(-9.48045e-05 -0.000352825 -0.000114893)
(-4.99533e-05 -0.000653939 -0.000195841)
(-1.77697e-05 -0.000962659 -0.000227246)
(1.30834e-05 -0.000962313 -0.000318095)
(5.09214e-05 -0.000726407 -0.000242399)
(2.34831e-05 -0.000511476 -0.00013761)
(-8.56057e-06 -0.000396798 -0.000105005)
(-3.97649e-06 -0.000423083 -0.0001351)
(-2.50672e-06 -0.000535869 -0.000143115)
(-6.3216e-06 -0.000598026 -0.00020001)
(1.45291e-05 -0.000692905 -0.000218155)
(-1.48842e-06 -0.000804619 -0.000211538)
(3.6951e-07 -0.000763673 -0.000273294)
(2.9806e-05 -0.00059014 -0.000210989)
(3.50534e-06 -0.000436379 -0.00012683)
(-2.76955e-05 -0.000432571 -0.000123684)
(-1.70051e-05 -0.000664202 -0.000198966)
(2.21827e-06 -0.000919429 -0.000219307)
(1.93515e-05 -0.000883783 -0.000289494)
(6.49518e-05 -0.000759582 -0.000292562)
(5.49948e-05 -0.000602202 -0.000219277)
(-6.90502e-05 -0.00057083 -0.000188313)
(-0.000283664 -0.000586997 -0.000258485)
(-0.000504896 -0.000585671 -0.000307632)
(-0.000902258 -0.000304217 0.00037987)
(0.000212483 -0.00101823 1.94888e-05)
(9.26459e-05 -0.00119341 -0.000265924)
(-2.31669e-06 -0.000895231 -0.000171257)
(-9.32885e-05 -0.000556793 -8.53091e-05)
(-0.000103517 -0.000317127 -5.04673e-05)
(-5.13898e-05 -0.00033814 -6.48896e-05)
(1.08966e-05 -0.000610925 -0.000103134)
(1.03885e-05 -0.000902535 -0.000108852)
(-8.69402e-06 -0.000887757 -0.000182464)
(-2.18976e-06 -0.000688896 -0.000133134)
(-1.66163e-05 -0.000490166 -7.57321e-05)
(-1.37353e-05 -0.00038021 -5.5873e-05)
(9.8615e-06 -0.000405489 -7.33581e-05)
(1.52136e-05 -0.000509467 -7.73305e-05)
(1.25607e-05 -0.00056046 -0.000116815)
(2.95343e-05 -0.000648365 -0.000125907)
(6.1847e-06 -0.000756949 -0.000115261)
(-1.46579e-05 -0.000713908 -0.000160041)
(-7.61392e-06 -0.00056328 -0.000117751)
(-1.3558e-05 -0.00041831 -7.11696e-05)
(2.79998e-06 -0.000409533 -6.50435e-05)
(4.08449e-05 -0.000617742 -0.000102642)
(4.10532e-05 -0.000870514 -8.87746e-05)
(6.80549e-06 -0.000847095 -0.0001282)
(2.13833e-05 -0.000711356 -0.000159103)
(2.23524e-05 -0.000573073 -0.000119215)
(-7.26431e-05 -0.000535465 -0.00010723)
(-0.00027634 -0.000539063 -0.000163478)
(-0.000520768 -0.00052137 -0.000216956)
(-0.000995101 -0.000356127 0.000489872)
(0.000308286 -0.00100048 0.000154093)
(8.69246e-05 -0.00105423 -0.000162438)
(-3.88237e-05 -0.00083402 -8.24746e-05)
(-0.000130466 -0.000530947 -3.42912e-05)
(-0.000108498 -0.000308949 -2.47428e-05)
(-1.95071e-05 -0.000328181 -3.27919e-05)
(5.10093e-05 -0.000577409 -4.41747e-05)
(2.9414e-05 -0.000844086 -3.86102e-05)
(-2.25722e-05 -0.000829134 -9.29351e-05)
(-3.86696e-05 -0.000659776 -6.43375e-05)
(-4.33312e-05 -0.000473578 -3.73123e-05)
(-1.72694e-05 -0.000373021 -2.53702e-05)
(1.89024e-05 -0.000395669 -3.61036e-05)
(2.80593e-05 -0.000485828 -3.80218e-05)
(2.6529e-05 -0.000534038 -6.32132e-05)
(3.84274e-05 -0.000615624 -6.64708e-05)
(1.04439e-05 -0.000714252 -5.6095e-05)
(-2.46522e-05 -0.000676442 -8.71725e-05)
(-3.224e-05 -0.000543371 -5.96654e-05)
(-2.30003e-05 -0.000405447 -3.61442e-05)
(2.4604e-05 -0.000398571 -2.71292e-05)
(7.79273e-05 -0.000585259 -4.0703e-05)
(6.4814e-05 -0.000823888 -1.47533e-05)
(6.83381e-07 -0.00081794 -3.55364e-05)
(-6.57855e-06 -0.000682477 -7.43807e-05)
(-8.0877e-07 -0.000553597 -5.79211e-05)
(-7.47931e-05 -0.00050693 -5.84862e-05)
(-0.000266899 -0.000499241 -0.000105908)
(-0.00052454 -0.000469071 -0.000155092)
(-0.00104856 -0.000402692 0.000546028)
(0.000368532 -0.000968534 0.000224603)
(8.20008e-05 -0.000929654 -8.35017e-05)
(-6.29508e-05 -0.000762907 -2.99968e-05)
(-0.000147414 -0.000496656 -6.53169e-06)
(-0.000105734 -0.000295326 -9.64147e-06)
(1.78558e-06 -0.0003137 -1.305e-05)
(7.4108e-05 -0.000539151 -9.6962e-06)
(4.09059e-05 -0.000775739 8.84023e-07)
(-2.97882e-05 -0.000768193 -3.70328e-05)
(-6.07528e-05 -0.00062341 -2.31517e-05)
(-5.95643e-05 -0.000451754 -1.48176e-05)
(-1.96235e-05 -0.000363367 -1.01215e-05)
(2.46254e-05 -0.000380862 -1.68037e-05)
(3.66539e-05 -0.000456003 -1.61149e-05)
(3.56908e-05 -0.000504836 -3.17826e-05)
(4.29024e-05 -0.000579972 -3.14307e-05)
(1.2378e-05 -0.000664915 -2.14891e-05)
(-3.02539e-05 -0.000634355 -4.27843e-05)
(-4.60989e-05 -0.000516605 -2.52753e-05)
(-2.71722e-05 -0.000388351 -1.53218e-05)
(3.84982e-05 -0.000386524 -6.58497e-06)
(9.85765e-05 -0.000551268 -5.20518e-06)
(7.70892e-05 -0.000765092 2.29982e-05)
(-6.87894e-07 -0.000774103 1.19433e-05)
(-2.15455e-05 -0.000649709 -2.58085e-05)
(-1.47873e-05 -0.000527771 -2.28202e-05)
(-7.49261e-05 -0.000473156 -3.06748e-05)
(-0.000255596 -0.000454267 -7.24716e-05)
(-0.000516537 -0.000416794 -0.000114105)
(-0.00106169 -0.000428906 0.000560131)
(0.000392262 -0.000916132 0.000249469)
(7.55289e-05 -0.000813503 -2.78756e-05)
(-7.66104e-05 -0.00068025 1.21713e-07)
(-0.000150017 -0.000450808 7.59918e-06)
(-9.80463e-05 -0.000273125 -7.37229e-07)
(1.46381e-05 -0.000290693 -1.24248e-06)
(8.44603e-05 -0.000490061 8.5759e-06)
(4.64929e-05 -0.000695909 2.12733e-05)
(-3.22495e-05 -0.00069745 -4.42129e-06)
(-7.1942e-05 -0.000575124 2.64213e-07)
(-6.81537e-05 -0.000420874 -2.50524e-06)
(-2.09934e-05 -0.000343908 -5.21215e-06)
(2.80288e-05 -0.000355589 -8.68005e-06)
(4.1719e-05 -0.000417338 -5.024e-06)
(4.072e-05 -0.000465882 -1.55798e-05)
(4.42769e-05 -0.000534273 -1.31963e-05)
(1.28475e-05 -0.000605895 -2.61142e-06)
(-3.25336e-05 -0.00058188 -1.69603e-05)
(-5.21262e-05 -0.000479097 -5.80745e-06)
(-2.80791e-05 -0.000363085 -3.69694e-06)
(4.59285e-05 -0.000364824 1.55412e-06)
(0.00010728 -0.000507528 1.16425e-05)
(8.15105e-05 -0.000691951 3.87717e-05)
(9.00564e-07 -0.000710781 3.23611e-05)
(-2.70544e-05 -0.000602798 -1.13359e-06)
(-2.12617e-05 -0.00049026 -4.10653e-06)
(-7.27916e-05 -0.000430632 -1.56325e-05)
(-0.00024235 -0.000401104 -5.35608e-05)
(-0.000498187 -0.000359853 -8.74965e-05)
(-0.00104198 -0.000427271 0.000545575)
(0.000384434 -0.000844113 0.000243462)
(6.65388e-05 -0.00070197 8.05783e-06)
(-8.21997e-05 -0.000589559 1.69219e-05)
(-0.00014325 -0.000394855 1.45666e-05)
(-8.76184e-05 -0.000242134 4.86021e-06)
(2.15258e-05 -0.000258354 5.90382e-06)
(8.59653e-05 -0.000429964 1.76815e-05)
(4.76233e-05 -0.000606863 3.05662e-05)
(-3.19444e-05 -0.00061614 1.36797e-05)
(-7.58636e-05 -0.000515688 1.29885e-05)
(-7.13522e-05 -0.000380841 3.96693e-06)
(-2.14572e-05 -0.000312902 -5.15067e-06)
(2.96506e-05 -0.000319973 -5.9565e-06)
(4.40947e-05 -0.000370391 7.12047e-08)
(4.27012e-05 -0.000415315 -7.93353e-06)
(4.33222e-05 -0.000476753 -4.59866e-06)
(1.22413e-05 -0.000538205 6.9368e-06)
(-3.26808e-05 -0.000519853 -2.14504e-06)
(-5.30785e-05 -0.00043186 4.86276e-06)
(-2.69329e-05 -0.000329221 2.59348e-06)
(4.87136e-05 -0.000330721 3.15835e-06)
(0.00010778 -0.000451878 1.75169e-05)
(8.08619e-05 -0.00060724 4.23958e-05)
(4.09433e-06 -0.000631108 3.83212e-05)
(-2.64473e-05 -0.000540735 1.02106e-05)
(-2.24149e-05 -0.000441347 5.21733e-06)
(-6.84627e-05 -0.000379954 -7.92463e-06)
(-0.000227225 -0.000341068 -4.27493e-05)
(-0.000472589 -0.000297968 -6.98097e-05)
(-0.00100092 -0.000396837 0.000515553)
(0.000353379 -0.000755897 0.00021807)
(5.52882e-05 -0.000593821 2.92543e-05)
(-8.19767e-05 -0.000495255 2.59202e-05)
(-0.000130844 -0.000331809 1.8105e-05)
(-7.59485e-05 -0.00020336 8.67965e-06)
(2.46059e-05 -0.000217481 1.0467e-05)
(8.18022e-05 -0.000361592 2.23378e-05)
(4.55136e-05 -0.000511954 3.3968e-05)
(-3.05617e-05 -0.000527056 2.36426e-05)
(-7.55712e-05 -0.000447942 1.95389e-05)
(-7.0906e-05 -0.000333567 7.40222e-06)
(-2.1153e-05 -0.000272668 -5.81376e-06)
(2.98319e-05 -0.000276534 -4.92979e-06)
(4.46539e-05 -0.000317228 2.36955e-06)
(4.27604e-05 -0.000355327 -3.51535e-06)
(4.04845e-05 -0.000409777 7.59007e-08)
(1.06161e-05 -0.000464555 1.14446e-05)
(-3.17361e-05 -0.000451506 6.32411e-06)
(-5.10487e-05 -0.000377608 1.04484e-05)
(-2.43544e-05 -0.000288349 6.06597e-06)
(4.86601e-05 -0.000286111 2.94748e-06)
(0.000103037 -0.000386392 1.8481e-05)
(7.7097e-05 -0.00051514 4.01324e-05)
(7.95345e-06 -0.000540697 3.75339e-05)
(-2.23541e-05 -0.000467599 1.53977e-05)
(-2.01953e-05 -0.000383755 9.49341e-06)
(-6.21996e-05 -0.000323222 -4.287e-06)
(-0.000210582 -0.000276721 -3.61836e-05)
(-0.000443339 -0.000232814 -5.72489e-05)
(-0.000949645 -0.000341488 0.000481279)
(0.000308339 -0.000655369 0.000182313)
(4.27919e-05 -0.000489538 4.044e-05)
(-7.7744e-05 -0.000401058 3.04004e-05)
(-0.000115431 -0.00026461 1.99959e-05)
(-6.39842e-05 -0.000157994 1.13776e-05)
(2.54763e-05 -0.000169325 1.36027e-05)
(7.44118e-05 -0.000287773 2.50591e-05)
(4.1152e-05 -0.00041428 3.4636e-05)
(-2.93176e-05 -0.000433902 2.93485e-05)
(-7.33457e-05 -0.000374953 2.25684e-05)
(-6.82565e-05 -0.000281466 9.24421e-06)
(-2.02764e-05 -0.000226829 -5.20132e-06)
(2.89165e-05 -0.000228097 -3.71706e-06)
(4.4105e-05 -0.00026036 3.70373e-06)
(4.17212e-05 -0.000290383 7.04902e-07)
(3.61958e-05 -0.000338005 4.14351e-06)
(8.04066e-06 -0.000387996 1.3504e-05)
(-3.04356e-05 -0.000379611 1.11293e-05)
(-4.74953e-05 -0.000319096 1.30308e-05)
(-2.07346e-05 -0.000242654 7.99281e-06)
(4.72554e-05 -0.000234717 3.43829e-06)
(9.54241e-05 -0.000314883 1.82209e-05)
(7.16331e-05 -0.000419605 3.56893e-05)
(1.17826e-05 -0.000444882 3.42152e-05)
(-1.66671e-05 -0.000388536 1.81109e-05)
(-1.60051e-05 -0.000320583 1.11176e-05)
(-5.4316e-05 -0.000262649 -2.8648e-06)
(-0.00019292 -0.000210419 -3.17973e-05)
(-0.000413552 -0.000166147 -4.77273e-05)
(-0.000897034 -0.000267814 0.0004507)
(0.00025786 -0.000546188 0.000143362)
(3.0511e-05 -0.000390121 4.52869e-05)
(-7.07471e-05 -0.000309491 3.227e-05)
(-9.8767e-05 -0.000195243 2.08985e-05)
(-5.22915e-05 -0.000106939 1.32567e-05)
(2.52041e-05 -0.000114996 1.59413e-05)
(6.55621e-05 -0.000210428 2.70286e-05)
(3.5294e-05 -0.000316076 3.43326e-05)
(-2.89698e-05 -0.000339654 3.28066e-05)
(-7.07632e-05 -0.000299204 2.35999e-05)
(-6.46436e-05 -0.000226503 1.00985e-05)
(-1.90436e-05 -0.000178652 -2.98436e-06)
(2.73002e-05 -0.000177218 -1.56341e-06)
(4.2883e-05 -0.000202003 4.87597e-06)
(4.00138e-05 -0.000224698 5.44024e-06)
(3.09927e-05 -0.000265844 8.51484e-06)
(4.79956e-06 -0.000311146 1.4474e-05)
(-2.91949e-05 -0.000306328 1.40946e-05)
(-4.34071e-05 -0.000258547 1.38113e-05)
(-1.64409e-05 -0.000193967 8.87283e-06)
(4.55712e-05 -0.00018004 5.24852e-06)
(8.68511e-05 -0.000240918 1.83126e-05)
(6.55692e-05 -0.000323618 3.1067e-05)
(1.50608e-05 -0.000347589 3.04385e-05)
(-1.07195e-05 -0.000307279 1.97464e-05)
(-1.07561e-05 -0.000254337 1.13857e-05)
(-4.5121e-05 -0.000200056 -2.59361e-06)
(-0.000174688 -0.000143637 -2.86342e-05)
(-0.000385369 -9.87707e-05 -4.03108e-05)
(-0.000849325 -0.000183091 0.000427979)
(0.000209149 -0.000431677 0.000106814)
(2.02439e-05 -0.000296312 4.63079e-05)
(-6.16981e-05 -0.000221757 3.26163e-05)
(-8.19138e-05 -0.000124486 2.11052e-05)
(-4.12012e-05 -5.07052e-05 1.46175e-05)
(2.44346e-05 -5.52856e-05 1.7888e-05)
(5.64288e-05 -0.00013069 2.88113e-05)
(2.84848e-05 -0.000218579 3.39376e-05)
(-2.99315e-05 -0.000246064 3.49317e-05)
(-6.88439e-05 -0.000222324 2.35572e-05)
(-6.11442e-05 -0.000169971 1.02781e-05)
(-1.77407e-05 -0.000130532 2.18522e-07)
(2.54022e-05 -0.000126278 1.4756e-06)
(4.12389e-05 -0.000143653 6.02778e-06)
(3.78017e-05 -0.000160618 1.00114e-05)
(2.54396e-05 -0.000195796 1.26354e-05)
(1.2958e-06 -0.000235805 1.49086e-05)
(-2.81923e-05 -0.000234031 1.63723e-05)
(-3.9379e-05 -0.00019756 1.35491e-05)
(-1.18509e-05 -0.000143508 8.96467e-06)
(4.42813e-05 -0.000124568 7.91034e-06)
(7.88476e-05 -0.000166925 1.89756e-05)
(5.9772e-05 -0.000228964 2.71978e-05)
(1.74379e-05 -0.00025114 2.71155e-05)
(-5.42217e-06 -0.000225927 2.07881e-05)
(-5.03305e-06 -0.000186886 1.10593e-05)
(-3.48894e-05 -0.000136688 -2.82118e-06)
(-0.000156204 -7.68052e-05 -2.62666e-05)
(-0.000359682 -3.04194e-05 -3.45239e-05)
(-0.000810325 -9.34158e-05 0.000413848)
(0.000168202 -0.000314892 7.67212e-05)
(1.37459e-05 -0.000208247 4.51129e-05)
(-5.08749e-05 -0.000137887 3.21148e-05)
(-6.54253e-05 -5.22818e-05 2.10338e-05)
(-3.0922e-05 1.04415e-05 1.58667e-05)
(2.34883e-05 9.2991e-06 1.97451e-05)
(4.76909e-05 -4.91962e-05 3.06277e-05)
(2.11164e-05 -0.00012213 3.38086e-05)
(-3.23392e-05 -0.000153695 3.61396e-05)
(-6.81994e-05 -0.000145179 2.30721e-05)
(-5.86682e-05 -0.000112632 1.00886e-05)
(-1.6768e-05 -8.3835e-05 3.35058e-06)
(2.36214e-05 -7.7e-05 4.57292e-06)
(3.93993e-05 -8.5957e-05 6.98642e-06)
(3.51548e-05 -9.85545e-05 1.34693e-05)
(2.00014e-05 -0.000128395 1.56278e-05)
(-2.17694e-06 -0.000162866 1.4911e-05)
(-2.74721e-05 -0.000164897 1.81078e-05)
(-3.56324e-05 -0.000137141 1.27474e-05)
(-7.31802e-06 -9.20241e-05 8.58072e-06)
(4.37384e-05 -6.96749e-05 1.05342e-05)
(7.25159e-05 -9.40074e-05 1.98072e-05)
(5.48921e-05 -0.000136305 2.44027e-05)
(1.87205e-05 -0.000156527 2.45788e-05)
(-1.29587e-06 -0.000145773 2.13598e-05)
(8.0833e-07 -0.000119572 1.0549e-05)
(-2.38424e-05 -7.32545e-05 -3.11315e-06)
(-0.000137694 -9.57516e-06 -2.43486e-05)
(-0.000336538 3.98625e-05 -2.99045e-05)
(-0.000781556 -2.26224e-06 0.000406786)
(0.000139902 -0.000198584 5.56462e-05)
(1.24661e-05 -0.000125521 4.26693e-05)
(-3.82538e-05 -5.71716e-05 3.12576e-05)
(-4.95261e-05 2.17176e-05 2.12831e-05)
(-2.16085e-05 7.63241e-05 1.74204e-05)
(2.24605e-05 7.84826e-05 2.17199e-05)
(3.96596e-05 3.39385e-05 3.2411e-05)
(1.34858e-05 -2.63957e-05 3.40218e-05)
(-3.61376e-05 -6.2359e-05 3.66696e-05)
(-6.9142e-05 -6.81089e-05 2.26004e-05)
(-5.79102e-05 -5.49362e-05 9.83744e-06)
(-1.65378e-05 -3.87641e-05 5.3134e-06)
(2.22906e-05 -2.95919e-05 6.54562e-06)
(3.76145e-05 -2.88213e-05 7.53296e-06)
(3.21431e-05 -3.78396e-05 1.52171e-05)
(1.49835e-05 -6.30469e-05 1.69325e-05)
(-5.51935e-06 -9.23853e-05 1.44078e-05)
(-2.70156e-05 -9.96801e-05 1.85759e-05)
(-3.21336e-05 -7.77594e-05 1.1735e-05)
(-3.14383e-06 -4.00393e-05 8.08109e-06)
(4.40753e-05 -1.56911e-05 1.22153e-05)
(6.8551e-05 -2.22138e-05 2.02805e-05)
(5.13657e-05 -4.54322e-05 2.26978e-05)
(1.88169e-05 -6.37723e-05 2.28846e-05)
(1.39477e-06 -6.73556e-05 2.13197e-05)
(6.58063e-06 -5.31667e-05 9.97455e-06)
(-1.21084e-05 -1.01145e-05 -3.19198e-06)
(-0.000119262 5.8663e-05 -2.24797e-05)
(-0.000315996 0.000113283 -2.59666e-05)
(-0.000762277 8.96223e-05 0.00040449)
(0.00012739 -8.48705e-05 4.48705e-05)
(1.73464e-05 -4.72412e-05 3.9477e-05)
(-2.3677e-05 2.14261e-05 3.03507e-05)
(-3.42752e-05 9.77547e-05 2.23289e-05)
(-1.33723e-05 0.000146808 1.95607e-05)
(2.13269e-05 0.000152142 2.39093e-05)
(3.24626e-05 0.000119039 3.39908e-05)
(5.83865e-06 6.936e-05 3.45281e-05)
(-4.11648e-05 2.84459e-05 3.6656e-05)
(-7.17739e-05 8.83043e-06 2.24047e-05)
(-5.9275e-05 2.85079e-06 9.7344e-06)
(-1.73137e-05 5.53804e-06 5.38983e-06)
(2.16151e-05 1.70592e-05 6.58638e-06)
(3.60796e-05 2.82817e-05 7.54104e-06)
(2.88419e-05 2.24993e-05 1.50464e-05)
(1.05526e-05 1.17205e-06 1.63585e-05)
(-8.69764e-06 -2.38292e-05 1.3342e-05)
(-2.67807e-05 -3.70797e-05 1.7072e-05)
(-2.88336e-05 -1.94926e-05 1.07112e-05)
(4.31712e-07 1.19944e-05 7.71679e-06)
(4.52738e-05 3.79455e-05 1.23266e-05)
(6.7275e-05 4.9059e-05 1.99994e-05)
(4.94203e-05 4.44213e-05 2.19844e-05)
(1.76965e-05 2.77351e-05 2.19718e-05)
(2.49999e-06 9.63838e-06 2.04407e-05)
(1.21849e-05 1.20506e-05 9.30173e-06)
(2.92006e-07 5.2568e-05 -2.94192e-06)
(-0.000100692 0.000128416 -2.03732e-05)
(-0.000297562 0.000190926 -2.22809e-05)
(-0.00075027 0.000182816 0.000404957)
(0.000131595 2.44638e-05 4.46665e-05)
(2.87589e-05 2.77228e-05 3.56684e-05)
(-7.0751e-06 9.907e-05 2.94428e-05)
(-1.96658e-05 0.000175973 2.42098e-05)
(-6.24828e-06 0.000221763 2.23443e-05)
(1.99967e-05 0.000230177 2.62898e-05)
(2.61134e-05 0.000206511 3.51396e-05)
(-1.64343e-06 0.000165982 3.52229e-05)
(-4.72315e-05 0.000119313 3.60768e-05)
(-7.60186e-05 8.57132e-05 2.25135e-05)
(-6.2812e-05 6.05612e-05 9.82295e-06)
(-1.91539e-05 5.03895e-05 3.57001e-06)
(2.15942e-05 6.45081e-05 4.64419e-06)
(3.48368e-05 8.60082e-05 7.00317e-06)
(2.53158e-05 8.34386e-05 1.29598e-05)
(6.79025e-06 6.52052e-05 1.39158e-05)
(-1.16013e-05 4.35652e-05 1.17813e-05)
(-2.67348e-05 2.52032e-05 1.38498e-05)
(-2.58293e-05 3.77672e-05 9.77666e-06)
(3.2769e-06 6.36773e-05 7.50302e-06)
(4.7219e-05 9.22038e-05 1.07464e-05)
(6.86545e-05 0.00012067 1.88003e-05)
(4.91006e-05 0.00013424 2.21417e-05)
(1.54155e-05 0.000118884 2.17397e-05)
(2.00199e-06 8.5939e-05 1.8665e-05)
(1.75412e-05 7.60461e-05 8.49635e-06)
(1.32552e-05 0.000114727 -2.39476e-06)
(-8.18192e-05 0.000200017 -1.8056e-05)
(-0.000279959 0.000273458 -1.86702e-05)
(-0.000742448 0.000278597 0.000406843)
(0.000151267 0.000127676 5.43798e-05)
(4.64462e-05 0.000100535 3.10857e-05)
(1.1436e-05 0.000176933 2.83501e-05)
(-5.69864e-06 0.000256604 2.65152e-05)
(-2.17536e-07 0.000300913 2.55729e-05)
(1.83479e-05 0.000312328 2.87007e-05)
(2.05611e-05 0.000296656 3.55896e-05)
(-8.81979e-06 0.000264121 3.59438e-05)
(-5.40877e-05 0.000210783 3.47642e-05)
(-8.16305e-05 0.000162632 2.27347e-05)
(-6.82231e-05 0.000118009 9.99204e-06)
(-2.19105e-05 9.66614e-05 5.47182e-07)
(2.20216e-05 0.000113978 1.47967e-06)
(3.3769e-05 0.000144885 6.0312e-06)
(2.16356e-05 0.000145931 9.15742e-06)
(3.72062e-06 0.000130001 9.80867e-06)
(-1.40433e-05 0.000110384 9.92283e-06)
(-2.68671e-05 8.84175e-05 1.00932e-05)
(-2.33694e-05 9.40755e-05 8.94488e-06)
(5.35557e-06 0.000114668 7.23249e-06)
(4.97127e-05 0.000147737 7.86059e-06)
(7.23266e-05 0.000193351 1.67736e-05)
(5.02837e-05 0.000224905 2.30472e-05)
(1.21164e-05 0.000210499 2.20669e-05)
(3.06234e-08 0.000162025 1.60852e-05)
(2.25745e-05 0.000138713 7.54683e-06)
(2.65829e-05 0.000176233 -1.71216e-06)
(-6.26702e-05 0.000273651 -1.58348e-05)
(-0.000261972 0.00036093 -1.53636e-05)
(-0.000735363 0.000378152 0.000409496)
(0.000183544 0.000223013 7.2399e-05)
(6.94699e-05 0.000172198 2.53831e-05)
(3.15891e-05 0.000255986 2.67765e-05)
(7.57185e-06 0.000339926 2.86676e-05)
(4.7151e-06 0.000383739 2.88203e-05)
(1.62416e-05 0.000397973 3.08084e-05)
(1.57221e-05 0.000389238 3.5006e-05)
(-1.55271e-05 0.000363928 3.63979e-05)
(-6.13619e-05 0.000303118 3.24417e-05)
(-8.81868e-05 0.00023954 2.27158e-05)
(-7.49403e-05 0.00017487 1.00468e-05)
(-2.5274e-05 0.000144195 -2.60864e-06)
(2.25644e-05 0.000165354 -1.7003e-06)
(3.26972e-05 0.000205013 4.83526e-06)
(1.79109e-05 0.000210645 4.20448e-06)
(1.2857e-06 0.000196257 4.6105e-06)
(-1.59022e-05 0.000176693 7.99407e-06)
(-2.71682e-05 0.00015181 6.95363e-06)
(-2.17111e-05 0.000149236 8.1252e-06)
(6.65815e-06 0.000164633 6.61237e-06)
(5.24398e-05 0.000204422 4.36173e-06)
(7.76267e-05 0.000267327 1.42253e-05)
(5.2682e-05 0.000316874 2.45388e-05)
(8.00369e-06 0.000303048 2.27931e-05)
(-3.19753e-06 0.000237884 1.27792e-05)
(2.72391e-05 0.0001996 6.34059e-06)
(4.01183e-05 0.000236756 -1.18772e-06)
(-4.32179e-05 0.000349254 -1.41305e-05)
(-0.000242636 0.000452746 -1.29562e-05)
(-0.000726136 0.000481629 0.000412597)
(0.000224738 0.000308869 9.62254e-05)
(9.62598e-05 0.000243285 1.80758e-05)
(5.28987e-05 0.000336601 2.43684e-05)
(2.00082e-05 0.000425841 3.01947e-05)
(8.46896e-06 0.000469327 3.15049e-05)
(1.34976e-05 0.000485935 3.20501e-05)
(1.14193e-05 0.000483318 3.27971e-05)
(-2.15527e-05 0.000464795 3.60082e-05)
(-6.84928e-05 0.00039592 2.86877e-05)
(-9.50269e-05 0.000316017 2.19812e-05)
(-8.2211e-05 0.000230522 9.77683e-06)
(-2.89404e-05 0.000191709 -4.84591e-06)
(2.28203e-05 0.000216883 -4.01063e-06)
(3.14694e-05 0.000265744 3.59401e-06)
(1.42981e-05 0.000277206 -9.94593e-07)
(-6.53841e-07 0.000263642 -7.55007e-07)
(-1.7232e-05 0.00024184 6.07492e-06)
(-2.75887e-05 0.000213342 4.66876e-06)
(-2.09292e-05 0.000202718 7.09587e-06)
(7.15864e-06 0.000213064 5.40245e-06)
(5.49143e-05 0.000261183 1.01759e-06)
(8.35949e-05 0.000341864 1.15098e-05)
(5.58761e-05 0.000409848 2.62952e-05)
(3.40866e-06 0.000396321 2.36535e-05)
(-7.27796e-06 0.000313113 8.7949e-06)
(3.15478e-05 0.000257863 4.54341e-06)
(5.3622e-05 0.000295661 -1.25414e-06)
(-2.3739e-05 0.000426224 -1.34541e-05)
(-0.000221778 0.00054771 -1.25174e-05)
(-0.000711953 0.000587204 0.000415273)
(0.00027024 0.000383736 0.000122594)
(0.000124739 0.00031362 8.42682e-06)
(7.46154e-05 0.000418122 2.05393e-05)
(3.13858e-05 0.000513252 3.0656e-05)
(1.0884e-05 0.000556031 3.28892e-05)
(9.86629e-06 0.00057427 3.15169e-05)
(7.38662e-06 0.00057713 2.79892e-05)
(-2.66248e-05 0.000565154 3.36844e-05)
(-7.46615e-05 0.000487738 2.26926e-05)
(-0.000101178 0.000391028 1.98547e-05)
(-8.91501e-05 0.000283846 8.93729e-06)
(-3.27265e-05 0.000236893 -5.48083e-06)
(2.23409e-05 0.000266052 -5.37721e-06)
(2.9921e-05 0.000325542 2.17799e-06)
(1.09353e-05 0.000343346 -5.79922e-06)
(-2.2273e-06 0.000329951 -5.6169e-06)
(-1.81555e-05 0.000304444 3.86219e-06)
(-2.7981e-05 0.000271001 2.44392e-06)
(-2.08592e-05 0.000253672 5.47525e-06)
(6.7493e-06 0.000259037 3.41997e-06)
(5.63748e-05 0.000315782 -1.67873e-06)
(8.89971e-05 0.000414867 8.60623e-06)
(5.93571e-05 0.000502492 2.76042e-05)
(-1.13656e-06 0.000489089 2.40863e-05)
(-1.14782e-05 0.000386662 4.19331e-06)
(3.56034e-05 0.000312384 1.6083e-06)
(6.66153e-05 0.000351928 -2.50081e-06)
(-5.05876e-06 0.000503174 -1.46283e-05)
(-0.000199506 0.000643865 -1.5711e-05)
(-0.000689765 0.000691304 0.000415166)
(0.000314123 0.000446099 0.00014758)
(0.000152527 0.00038214 -4.87504e-06)
(9.57318e-05 0.000498736 1.41044e-05)
(4.13954e-05 0.000599601 2.91521e-05)
(1.17526e-05 0.000641146 3.18328e-05)
(5.00348e-06 0.000660106 2.7678e-05)
(3.29511e-06 0.000667766 1.88278e-05)
(-3.04151e-05 0.000662389 2.74562e-05)
(-7.87679e-05 0.000575947 1.27589e-05)
(-0.000105248 0.000462776 1.52262e-05)
(-9.47479e-05 0.000333131 7.04101e-06)
(-3.654e-05 0.000276443 -4.68744e-06)
(2.06432e-05 0.000310199 -6.60019e-06)
(2.77082e-05 0.000382073 -2.24721e-07)
(7.80921e-06 0.000404947 -1.09385e-05)
(-3.37187e-06 0.000391146 -1.06643e-05)
(-1.85981e-05 0.000362544 3.94145e-07)
(-2.80353e-05 0.000323385 -1.1134e-06)
(-2.11697e-05 0.000300928 2.65791e-06)
(5.13588e-06 0.000301106 3.24262e-07)
(5.5671e-05 0.000364717 -4.19264e-06)
(9.24142e-05 0.00048287 4.38918e-06)
(6.25766e-05 0.000592297 2.69898e-05)
(-4.88856e-06 0.000578825 2.28279e-05)
(-1.46698e-05 0.000455807 -1.41229e-06)
(3.96958e-05 0.000361781 -3.1944e-06)
(7.82434e-05 0.0004042 -5.72194e-06)
(1.12793e-05 0.000577957 -1.91438e-05)
(-0.000176162 0.000738433 -2.51794e-05)
(-0.000655968 0.000789586 0.000407962)
(0.000349383 0.000494453 0.000166612)
(0.000176812 0.000447126 -2.41045e-05)
(0.000114959 0.000575668 2.83421e-06)
(4.96213e-05 0.000681014 2.35991e-05)
(1.08637e-05 0.000720859 2.62208e-05)
(-1.5565e-06 0.000739765 1.78638e-05)
(-1.21546e-06 0.000751151 1.91577e-06)
(-3.25164e-05 0.000753059 1.39132e-05)
(-7.93454e-05 0.000657063 -4.42868e-06)
(-0.000105335 0.000528818 6.1495e-06)
(-9.78556e-05 0.000376193 2.92117e-06)
(-4.03061e-05 0.000306453 -4.30826e-06)
(1.72547e-05 0.000346521 -9.60502e-06)
(2.41945e-05 0.000432626 -5.50096e-06)
(4.6429e-06 0.000457609 -1.94309e-05)
(-3.6825e-06 0.000442951 -1.88624e-05)
(-1.81156e-05 0.000413976 -6.25132e-06)
(-2.72536e-05 0.000368999 -7.89312e-06)
(-2.14267e-05 0.000342981 -2.39765e-06)
(1.74473e-06 0.000337441 -4.80924e-06)
(5.12102e-05 0.000403828 -8.93213e-06)
(9.22361e-05 0.000541705 -4.25489e-06)
(6.49651e-05 0.000675723 2.16704e-05)
(-6.94349e-06 0.000661842 1.72892e-05)
(-1.52176e-05 0.000516154 -1.0124e-05)
(4.44615e-05 0.000404372 -1.10074e-05)
(8.72327e-05 0.000450905 -1.20822e-05)
(2.29679e-05 0.000647997 -2.94875e-05)
(-0.000152663 0.000828149 -4.50632e-05)
(-0.000606213 0.000877674 0.000387355)
(0.000368867 0.000527603 0.000174338)
(0.000194395 0.000506922 -5.28491e-05)
(0.000130642 0.000645752 -1.70899e-05)
(5.5506e-05 0.000753029 9.91214e-06)
(8.04332e-06 0.000790725 1.20489e-05)
(-1.0369e-05 0.000809436 -2.48599e-06)
(-6.53553e-06 0.00082334 -2.8818e-05)
(-3.24028e-05 0.000833706 -1.25207e-05)
(-7.45543e-05 0.000728168 -3.44815e-05)
(-9.90022e-05 0.000586566 -1.07444e-05)
(-9.71114e-05 0.000410948 -5.80551e-06)
(-4.39333e-05 0.000324009 -8.52204e-06)
(1.17357e-05 0.000372593 -1.80302e-05)
(1.85367e-05 0.000474874 -1.69687e-05)
(9.60064e-07 0.000499128 -3.65822e-05)
(-2.47348e-06 0.000483318 -3.54368e-05)
(-1.59862e-05 0.000457037 -1.92534e-05)
(-2.49898e-05 0.000406113 -2.09589e-05)
(-2.10927e-05 0.000378192 -1.16245e-05)
(-4.21397e-06 0.000366389 -1.39773e-05)
(4.10491e-05 0.000430335 -2.08669e-05)
(8.66111e-05 0.000588401 -2.29871e-05)
(6.58374e-05 0.000748799 6.8186e-06)
(-6.26041e-06 0.000734092 2.79751e-06)
(-1.09171e-05 0.000563775 -2.68278e-05)
(5.09597e-05 0.000438618 -2.38949e-05)
(9.1953e-05 0.00049041 -2.35316e-05)
(2.71081e-05 0.000710895 -4.94873e-05)
(-0.000130621 0.000910252 -8.1441e-05)
(-0.000535926 0.000951495 0.000344897)
(0.000366116 0.00054535 0.000164359)
(0.000202162 0.000561646 -9.60598e-05)
(0.000140751 0.000706596 -5.18166e-05)
(5.839e-05 0.000811893 -1.90078e-05)
(3.24662e-06 0.000847164 -1.77213e-05)
(-2.19337e-05 0.000866882 -4.06504e-05)
(-1.31853e-05 0.00088383 -8.24278e-05)
(-2.94855e-05 0.000902726 -6.02803e-05)
(-6.22959e-05 0.000789295 -8.54786e-05)
(-8.3286e-05 0.000634397 -4.09596e-05)
(-9.06176e-05 0.000436708 -2.3108e-05)
(-4.73229e-05 0.000330292 -2.3283e-05)
(3.38431e-06 0.000388325 -3.74674e-05)
(9.81834e-06 0.000507882 -3.96987e-05)
(-3.57333e-06 0.000531187 -6.90885e-05)
(9.16887e-07 0.000514137 -6.69348e-05)
(-1.14513e-05 0.000491507 -4.32681e-05)
(-2.05294e-05 0.000434741 -4.50694e-05)
(-1.95034e-05 0.000405539 -2.84133e-05)
(-1.33434e-05 0.000387613 -3.05641e-05)
(2.31557e-05 0.00044612 -4.67592e-05)
(7.3161e-05 0.000623903 -5.96239e-05)
(6.41157e-05 0.000808523 -2.53568e-05)