/*--------------------------------*- C++ -*----------------------------------*\
| =========                 |                                                 |
| \\      /  F ield         | OpenFOAM: The Open Source CFD Toolbox           |
|  \\    /   O peration     | Version:  2106                                  |
|   \\  /    A nd           | Website:  www.openfoam.com                      |
|    \\/     M anipulation  |                                                 |
\*---------------------------------------------------------------------------*/
FoamFile
{
    version     2.0;
    format      ascii;
    arch        "LSB;label=32;scalar=64";
    class       volSymmTensorField;
    location    "563";
    object      epsilon;
}
// * * * * * * * * * * * * * * * * * * * * * * * * * * * * * * * * * * * * * //

dimensions      [0 0 0 0 0 0 0];

internalField   nonuniform List<symmTensor> 
9000
(
(7.18309 0.117448 -0.69479 12.2547 -5.37287 -40.1984)
(0.973274 -0.0578095 1.64931 12.6829 -7.35791 -35.157)
(0.268879 0.0880514 3.06467 13.1705 -5.48112 -35.9233)
(-0.398412 -0.0169794 3.24847 7.71781 -3.23581 -20.6414)
(-0.910632 -0.00553096 0.306839 3.84102 -1.67612 -9.77156)
(-0.588059 0.00982214 -2.94287 4.27319 -1.84717 -11.2246)
(0.17161 0.0297191 -3.75279 7.87793 -3.61295 -21.6333)
(0.715387 -0.0119611 -1.62687 10.9301 -5.13495 -30.5675)
(0.705405 -0.020406 1.35278 11.696 -5.41051 -32.2877)
(0.15973 0.00361773 3.14648 9.30432 -3.97566 -25.4204)
(-0.425994 -0.0184661 2.22041 5.56873 -2.60261 -14.9175)
(-0.458471 -0.000953122 0.154334 4.15993 -2.05759 -11.0708)
(-0.160957 0.0129426 -0.836305 5.23296 -2.32752 -14.2671)
(-0.015042 -0.00444118 -0.845994 6.04496 -2.81003 -16.6975)
(0.0225565 -0.0107024 -0.889799 7.16971 -3.28495 -19.5455)
(0.0595806 0.0113564 -0.743682 8.03055 -3.75193 -21.8605)
(0.221132 -0.00063451 -0.502946 8.87415 -4.21809 -24.4448)
(0.396779 0.000999112 0.787802 9.7847 -4.33071 -26.9074)
(0.0457063 0.00612821 2.25088 7.9313 -3.27909 -21.6846)
(-0.573237 -0.0114795 1.04459 4.95695 -2.25266 -13.1155)
(-0.622732 0.0100898 -1.70213 4.84006 -2.30136 -12.6374)
(-0.0390263 0.0558565 -3.28221 8.07763 -3.71614 -21.8747)
(0.595739 0.055337 -1.95294 11.5494 -5.05641 -32.0731)
(0.698232 -0.0356411 1.03699 13.332 -5.13283 -36.7692)
(0.157827 -0.0492961 2.8502 10.7949 -4.47943 -29.1541)
(-0.498959 -0.00711231 1.99644 8.5907 -3.4269 -22.7843)
(-0.736986 -0.0135025 -0.560617 7.48165 -3.17523 -19.6004)
(-0.468122 -0.0244201 -2.97619 8.91237 -3.53567 -23.6662)
(-0.253936 0.100005 -3.74426 8.47977 -3.64379 -22.8069)
(1.17251 0.0279356 -2.42695 2.7238 -1.22986 -8.88805)
(4.2035 0.190563 -0.150769 6.49608 -9.53015 -22.8126)
(0.5893 -0.100425 1.42293 7.10501 -14.2999 -20.4033)
(0.075659 0.0838872 1.68746 6.99181 -9.534 -20.8764)
(-0.31518 -0.300824 1.41063 4.12104 -5.66919 -11.9353)
(-0.593481 -0.102556 -0.35835 2.08309 -2.9702 -5.74563)
(-0.331919 0.146423 -2.02842 2.33794 -3.24958 -6.77916)
(0.158599 0.246546 -2.17339 4.26682 -6.52516 -12.7053)
(0.476565 0.0797898 -0.865662 5.68371 -9.48745 -17.0326)
(0.468246 -0.082328 0.781046 6.3749 -9.78465 -19.1429)
(0.102837 -0.176352 1.87684 4.98816 -6.99804 -15.0747)
(-0.296254 -0.195668 1.23662 2.97243 -4.75249 -8.63268)
(-0.297075 -0.00834266 0.0317199 2.29335 -3.79317 -6.49798)
(-0.093846 0.0790042 -0.433451 2.82916 -4.13545 -8.47841)
(-0.0108975 0.0460005 -0.437673 3.16671 -5.15889 -9.5121)
(0.0242187 0.0394984 -0.506972 3.92521 -5.90002 -11.7005)
(0.0412794 0.0647903 -0.291876 4.39467 -6.79114 -12.988)
(0.125276 0.0489088 -0.226247 4.69819 -7.7811 -13.9332)
(0.25847 -0.0158089 0.406126 5.30884 -7.69608 -16.1193)
(0.0290555 -0.132134 1.2966 4.23006 -5.7058 -12.9313)
(-0.385198 -0.11524 0.502617 2.66632 -4.06583 -7.68425)
(-0.395685 0.116143 -1.03746 2.71472 -4.16607 -7.52439)
(-0.0109061 0.316284 -1.80037 4.43597 -6.68726 -12.8764)
(0.393049 0.289202 -1.0104 5.99421 -9.11904 -17.9152)
(0.476614 -0.0893256 0.637905 7.02172 -8.68128 -21.5003)
(0.118679 -0.257319 1.85094 5.97266 -7.72739 -17.7389)
(-0.386804 -0.128124 1.36363 4.64826 -5.83488 -13.6167)
(-0.652475 -0.0239458 -0.546241 4.06625 -5.55158 -11.4767)
(-0.560333 -0.0217284 -2.85737 4.8662 -5.96586 -14.1996)
(-0.508767 0.0441411 -4.46129 4.67507 -6.35244 -13.9754)
(-0.294635 -0.140054 -3.31697 1.23805 -2.19788 -1.81402)
(2.30757 0.219539 0.336209 2.50604 -10.6958 -11.8213)
(0.244323 -0.0829465 1.2024 3.84641 -15.47 -13.434)
(-0.0803593 0.133722 0.83412 2.96838 -10.4594 -12.1747)
(-0.255609 -0.260223 0.132866 1.7044 -6.23584 -6.84654)
(-0.317053 -0.0686391 -0.788695 0.852638 -3.28767 -3.42318)
(-0.111781 0.158524 -1.3319 0.991361 -3.56258 -4.17482)
(0.138908 0.20573 -1.03589 1.90414 -7.10654 -7.67855)
(0.264602 0.0648402 -0.354418 2.36505 -10.5871 -9.61461)
(0.265892 -0.0595588 0.356514 2.93501 -10.6036 -11.8112)
(0.053778 -0.18228 0.955724 2.10348 -7.69557 -9.01797)
(-0.183094 -0.189235 0.514033 1.23356 -5.28622 -5.10833)
(-0.154094 0.00337394 -0.056081 1.02668 -4.12388 -3.98525)
(-0.03654 0.0631358 -0.146894 1.20619 -4.49872 -5.14268)
(-0.00855468 0.0420915 -0.150763 1.29748 -5.75899 -5.53686)
(0.0263412 0.0490332 -0.22679 1.77078 -6.39714 -7.26304)
(0.0243821 0.036407 0.0207479 1.99077 -7.38386 -8.006)
(0.0427889 0.0442217 -0.0465956 2.00473 -8.64415 -8.15469)
(0.140606 0.00457219 0.137839 2.357 -8.34402 -9.94855)
(0.0140177 -0.135199 0.605485 1.74414 -6.28055 -7.75614)
(-0.220867 -0.102731 0.115973 1.11483 -4.50206 -4.61142)
(-0.191601 0.121111 -0.556529 1.25882 -4.48178 -4.66631)
(0.0207274 0.288481 -0.697944 2.03576 -7.22207 -7.8222)
(0.205056 0.292056 -0.273112 2.40334 -10.1547 -9.87613)
(0.266308 -0.0574481 0.327117 2.78175 -9.53704 -12.2028)
(0.0853747 -0.261301 1.06708 2.68716 -8.24406 -10.9328)
(-0.284107 -0.156131 0.865348 1.95358 -6.34468 -8.12525)
(-0.576874 -0.0267982 -0.565501 1.76445 -6.04518 -6.78012)
(-0.618089 -0.00057943 -2.79124 2.16514 -6.40129 -8.63282)
(-0.733679 0.0427003 -4.88811 2.25361 -6.71531 -9.0205)
(-1.35016 -0.195211 -4.01847 -0.0465307 -2.80857 3.29127)
(0.809297 0.261395 0.825357 0.820093 -10.8532 -4.75217)
(-0.0620888 -0.0264699 1.03958 2.72851 -14.3194 -9.41125)
(-0.198095 0.149809 0.227619 1.39655 -10.235 -7.03881)
(-0.202826 -0.107937 -0.728983 0.711749 -6.17226 -3.81)
(-0.0968306 0.00877432 -1.0397 0.315239 -3.30777 -2.03515)
(0.0567471 0.121837 -0.784283 0.392706 -3.54824 -2.56259)
(0.115552 0.0843586 -0.217797 0.923455 -6.87702 -4.58146)
(0.0945551 0.0192933 0.00262949 1.17376 -10.388 -5.39237)
(0.103037 -0.0160466 0.048283 1.51958 -10.1714 -7.30717)
(0.0155996 -0.123196 0.269578 0.892696 -7.62278 -5.32068)
(-0.089223 -0.110183 -0.00050528 0.514848 -5.27194 -3.0235)
(-0.0411894 0.0194084 -0.114512 0.440305 -4.01566 -2.38551)
(0.00908077 0.0228359 0.0444704 0.48251 -4.41383 -3.04303)
(-0.00351766 0.0218147 0.0611138 0.576786 -5.70918 -3.24067)
(0.0255537 0.0408704 -0.00231105 0.838807 -6.19604 -4.5033)
(0.00724977 -0.0140728 0.22693 0.966485 -7.15433 -4.93366)
(-0.0212393 0.0207054 0.0647139 0.973937 -8.49779 -4.80875)
(0.0469417 0.0290385 -0.0576569 1.10372 -8.09244 -6.12861)
(0.00470374 -0.0840078 0.0997365 0.69072 -6.25449 -4.59083)
(-0.0862522 -0.0445637 -0.133721 0.455496 -4.48566 -2.7736)
(-0.0307657 0.0908731 -0.187149 0.572329 -4.32131 -2.82073)
(0.0448706 0.15513 0.090753 1.00511 -6.92512 -4.66956)
(0.0545348 0.188686 0.251835 1.05433 -10.0188 -5.20513)
(0.0941003 -0.000128826 0.123033 1.01528 -9.50496 -6.506)
(0.053465 -0.174975 0.482227 1.18381 -7.94586 -6.54255)
(-0.201003 -0.133586 0.461256 0.771506 -6.27401 -4.73496)
(-0.507988 -0.0170885 -0.598913 0.795267 -5.91849 -3.97712)
(-0.653769 0.0358077 -2.72799 1.02762 -6.17726 -5.28184)
(-0.927892 0.0483472 -5.15602 1.24992 -6.25751 -5.95291)
(-2.18181 -0.196253 -4.58239 -0.630207 -3.378 6.79439)
(-0.311831 0.280181 1.27279 0.321469 -10.7657 -0.335458)
(-0.322199 0.0364186 0.938064 2.25591 -12.6778 -6.46843)
(-0.278902 0.154002 -0.217596 0.962405 -9.69145 -4.01781)
(-0.151801 0.0577717 -1.25584 0.41954 -5.96835 -2.04411)
(0.0628481 0.0863166 -1.14946 0.144044 -3.28221 -1.21997)
(0.171621 0.0620164 -0.373325 0.184832 -3.49675 -1.56053)
(0.0926674 -0.0446862 0.337061 0.573973 -6.52547 -2.60304)
(-0.029386 -0.0306849 0.24584 0.889294 -9.80528 -2.93956)
(-0.0188674 0.0265209 -0.154914 0.998846 -9.53667 -4.38945)
(-0.0118834 -0.0377736 -0.213519 0.499728 -7.39418 -3.06268)
(-0.0173183 -0.0190394 -0.340582 0.284228 -5.14988 -1.77301)
(0.0397167 0.0308497 -0.151553 0.178331 -3.91397 -1.32124)
(0.0434233 -0.0111467 0.163844 0.205608 -4.31013 -1.72037)
(0.00404876 -0.00160562 0.216469 0.375305 -5.49377 -1.89891)
(0.021481 0.0190166 0.172923 0.479915 -5.91767 -2.72385)
(-0.00956396 -0.0577477 0.351611 0.579602 -6.81664 -2.96178)
(-0.0662883 -0.00441104 0.124629 0.677752 -8.09593 -2.8195)
(-0.0206979 0.0514204 -0.192444 0.654232 -7.71146 -3.71254)
(0.00164989 -0.0109744 -0.241826 0.350764 -6.10842 -2.67414)
(0.0156208 0.0159143 -0.269455 0.231984 -4.39218 -1.65854)
(0.0816044 0.0465494 0.0919502 0.255002 -4.17515 -1.56527)
(0.0573799 0.0102609 0.609534 0.59207 -6.53751 -2.60319)
(-0.0510592 0.062719 0.580968 0.716554 -9.54231 -2.51948)
(-0.0295049 0.0493628 0.0173998 0.493821 -9.26864 -3.15718)
(0.0233203 -0.0627222 0.0871516 0.578285 -7.62016 -3.69441)
(-0.14104 -0.0773451 0.156827 0.364537 -6.12151 -2.67861)
(-0.448039 0.00397172 -0.630351 0.47925 -5.67608 -2.32205)
(-0.672188 0.073439 -2.65287 0.658172 -5.82203 -3.29493)
(-1.07814 0.0635371 -5.29296 0.874504 -5.66843 -3.94259)
(-2.77087 -0.150494 -4.96527 -0.738564 -3.93367 8.91562)
(-1.07885 0.252313 1.61472 0.372696 -10.4913 2.22597)
(-0.520665 0.0849251 0.872644 1.97817 -11.1024 -4.14206)
(-0.326086 0.165084 -0.52894 0.992428 -8.96406 -2.26772)
(-0.104511 0.190833 -1.52547 0.451027 -5.6637 -1.08141)
(0.166438 0.143764 -1.15664 0.163503 -3.20992 -0.768842)
(0.23926 -0.00193764 -0.0893838 0.183305 -3.41226 -0.963251)
(0.0733818 -0.149886 0.678319 0.538307 -6.14624 -1.40232)
(-0.110372 -0.0743533 0.400346 0.950966 -9.05445 -1.53053)
(-0.102125 0.0591292 -0.269304 0.89673 -8.87705 -2.53501)
(-0.0311386 0.0470553 -0.520199 0.491143 -7.06488 -1.72706)
(0.0321002 0.0540114 -0.54809 0.288091 -4.96871 -1.04974)
(0.0933505 0.0363517 -0.176131 0.126324 -3.85496 -0.70613)
(0.067993 -0.0292405 0.237454 0.184703 -4.20231 -0.984764)
(0.0114398 -0.0233755 0.325706 0.400981 -5.1958 -1.14127)
(0.0155523 -0.0106093 0.296527 0.417181 -5.63751 -1.63381)
(-0.0241276 -0.0850307 0.419537 0.512943 -6.46824 -1.75049)
(-0.0946194 -0.0223885 0.149963 0.690255 -7.58373 -1.65246)
(-0.0640259 0.0696759 -0.274813 0.596647 -7.2861 -2.24168)
(0.00247788 0.0589276 -0.444009 0.350061 -5.87099 -1.55897)
(0.0852661 0.0575473 -0.327664 0.224689 -4.25522 -1.00612)
(0.151391 -0.00099078 0.286453 0.172564 -4.08677 -0.799878)
(0.060315 -0.102495 0.91666 0.498553 -6.17148 -1.31959)
(-0.115866 -0.0393757 0.758429 0.790665 -8.88831 -1.05104)
(-0.107089 0.0779578 -0.0191319 0.54744 -8.85591 -1.34051)
(-0.00223823 0.0372743 -0.146018 0.462357 -7.30695 -1.9776)
(-0.102322 -0.00761323 -0.0439984 0.339762 -5.90152 -1.49719)
(-0.399135 0.0322058 -0.647384 0.467318 -5.3648 -1.38733)
(-0.67462 0.106186 -2.5596 0.635968 -5.38538 -2.16212)
(-1.17249 0.0882794 -5.29872 0.784318 -5.06947 -2.63284)
(-3.12336 -0.0750996 -5.13746 -0.545841 -4.35709 9.90431)
(-1.53852 0.186614 1.81027 0.632607 -9.9938 3.5042)
(-0.647224 0.111487 0.813995 1.80545 -9.67517 -2.39029)
(-0.344122 0.183049 -0.722747 1.15328 -8.07641 -1.26408)
(-0.0641743 0.277369 -1.61114 0.601041 -5.23275 -0.596818)
(0.2238 0.176409 -1.09684 0.268679 -3.0564 -0.533053)
(0.269763 -0.0548236 0.0879217 0.281158 -3.25301 -0.626588)
(0.0586805 -0.221089 0.855524 0.655111 -5.685 -0.747856)
(-0.155844 -0.107736 0.485507 1.11133 -8.17984 -0.752248)
(-0.152488 0.0779571 -0.31714 0.987627 -8.14542 -1.42746)
(-0.0446641 0.112557 -0.687064 0.634896 -6.60093 -0.970531)
(0.0616939 0.101948 -0.662483 0.395287 -4.70025 -0.66039)
(0.126285 0.0392046 -0.192657 0.218345 -3.75033 -0.460322)
(0.0844162 -0.0352533 0.283395 0.300594 -4.0106 -0.659487)
(0.016598 -0.0417563 0.395678 0.513673 -4.80926 -0.743998)
(0.00937263 -0.0397609 0.372125 0.511171 -5.29598 -1.04225)
(-0.0349691 -0.0981237 0.449566 0.610131 -6.05403 -1.08392)
(-0.109734 -0.0317735 0.155191 0.812678 -6.96807 -0.995711)
(-0.0877154 0.0816772 -0.31588 0.709216 -6.75942 -1.39781)
(0.00462242 0.109929 -0.541342 0.482062 -5.50878 -0.938498)
(0.126896 0.0785148 -0.341156 0.317722 -4.04276 -0.650633)
(0.188623 -0.0422207 0.404658 0.253099 -3.96327 -0.446722)
(0.0578866 -0.173853 1.06995 0.582984 -5.76015 -0.629885)
(-0.148897 -0.104515 0.832927 0.989527 -8.08203 -0.319003)
(-0.147952 0.0873517 -0.0149502 0.803694 -8.22549 -0.461132)
(-0.0211491 0.107964 -0.256119 0.597598 -6.88921 -1.06533)
(-0.080071 0.0557159 -0.152154 0.475028 -5.56229 -0.864356)
(-0.361213 0.0626337 -0.644176 0.572237 -4.95907 -0.886645)
(-0.662416 0.134331 -2.44815 0.736029 -4.84848 -1.54022)
(-1.20913 0.117844 -5.1849 0.819138 -4.4416 -1.81861)
(-3.27188 0.00325634 -5.10683 -0.184343 -4.5431 10.0393)
(-1.752 0.106768 1.85275 0.933162 -9.28331 3.9184)
(-0.703308 0.118929 0.73944 1.70764 -8.35447 -1.17794)
(-0.338319 0.199838 -0.821402 1.30011 -7.07884 -0.686376)
(-0.032154 0.320961 -1.57578 0.763506 -4.68292 -0.369197)
(0.246983 0.188018 -0.9984 0.39894 -2.80843 -0.410741)
(0.27376 -0.088676 0.186682 0.415091 -2.9971 -0.444305)
(0.0477821 -0.259447 0.915651 0.818897 -5.10651 -0.427924)
(-0.175065 -0.130352 0.517817 1.26658 -7.21523 -0.347781)
(-0.177652 0.0825033 -0.322365 1.14039 -7.30599 -0.805515)
(-0.0538564 0.150767 -0.75577 0.807913 -6.00468 -0.556293)
(0.076423 0.129207 -0.713177 0.531853 -4.33195 -0.467912)
(0.144274 0.0420869 -0.201134 0.378489 -3.52842 -0.443722)
(0.0940685 -0.0362282 0.31002 0.456668 -3.69962 -0.557894)
(0.0190368 -0.0548162 0.432409 0.642088 -4.33625 -0.555477)
(0.00383693 -0.0614122 0.408688 0.671404 -4.84426 -0.778058)
(-0.0418087 -0.103436 0.453711 0.77414 -5.52722 -0.776507)
(-0.115216 -0.0362179 0.150498 0.950321 -6.25926 -0.64556)
(-0.0974605 0.0859978 -0.328114 0.85876 -6.11325 -0.923356)
(0.00668168 0.137923 -0.569998 0.635587 -5.02702 -0.600952)
(0.147082 0.0866018 -0.331038 0.443478 -3.73826 -0.472177)
(0.203039 -0.070025 0.461895 0.418526 -3.72196 -0.367747)
(0.053373 -0.210834 1.11687 0.745423 -5.24179 -0.338799)
(-0.159569 -0.138292 0.84279 1.18389 -7.15948 -0.010833)
(-0.162847 0.0847983 0.0107738 1.07247 -7.40213 -0.102702)
(-0.0332434 0.147009 -0.282394 0.817299 -6.3042 -0.645946)
(-0.0686058 0.100521 -0.190203 0.648179 -5.09346 -0.548988)
(-0.331632 0.0911048 -0.619025 0.699016 -4.45876 -0.631895)
(-0.638093 0.159474 -2.3167 0.84899 -4.22418 -1.20346)
(-1.19945 0.14518 -4.97221 0.891197 -3.77017 -1.32595)
(-3.27154 0.0634087 -4.92136 0.240517 -4.43765 9.62166)
(-1.78211 0.0336679 1.76196 1.20177 -8.4057 3.77035)
(-0.699951 0.115013 0.640368 1.64762 -7.10464 -0.403269)
(-0.314683 0.210212 -0.849355 1.38747 -6.03328 -0.350455)
(-0.00812809 0.332467 -1.46661 0.89249 -4.04668 -0.262701)
(0.247163 0.185243 -0.880954 0.52324 -2.47362 -0.340292)
(0.260376 -0.103493 0.234037 0.549089 -2.64732 -0.343058)
(0.0391463 -0.271349 0.898067 0.96352 -4.42715 -0.272181)
(-0.176864 -0.143304 0.510894 1.37966 -6.1982 -0.153137)
(-0.18523 0.0747098 -0.305998 1.27796 -6.37191 -0.461889)
(-0.0591117 0.162865 -0.763683 0.953864 -5.30836 -0.33314)
(0.0816096 0.141769 -0.719658 0.654798 -3.87638 -0.375854)
(0.151504 0.0450523 -0.201319 0.534302 -3.18144 -0.507303)
(0.0983279 -0.0363554 0.319932 0.592911 -3.28856 -0.541805)
(0.0195759 -0.0605008 0.444299 0.750825 -3.79435 -0.473651)
(-0.00115884 -0.0721202 0.418575 0.829157 -4.27145 -0.68017)
(-0.0456898 -0.106389 0.437635 0.933724 -4.8789 -0.656928)
(-0.114005 -0.0406926 0.138955 1.06005 -5.48358 -0.466472)
(-0.0979797 0.0827494 -0.323171 0.977811 -5.38295 -0.641618)
(0.00862186 0.147015 -0.558289 0.761166 -4.45856 -0.416042)
(0.152688 0.0898221 -0.306535 0.560515 -3.34998 -0.384261)
(0.202069 -0.0817491 0.477068 0.590346 -3.34457 -0.40487)
(0.0482225 -0.223299 1.09232 0.908522 -4.60742 -0.259169)
(-0.155528 -0.150973 0.813061 1.32608 -6.16722 0.0715639)
(-0.160964 0.0763266 0.0477008 1.27563 -6.45002 -0.00250205)
(-0.0397639 0.159946 -0.257221 1.01399 -5.56929 -0.466152)
(-0.0630232 0.124585 -0.182783 0.798786 -4.5197 -0.400061)
(-0.307216 0.114929 -0.573745 0.805576 -3.88638 -0.508053)
(-0.606189 0.180619 -2.16663 0.932869 -3.54549 -1.01463)
(-1.16055 0.163854 -4.69467 0.952787 -3.07101 -1.01654)
(-3.18152 0.0990348 -4.64522 0.643375 -4.05081 8.93478)
(-1.68678 -0.0211632 1.57224 1.41558 -7.41142 3.27765)
(-0.653034 0.106431 0.519023 1.59324 -5.91856 0.0549702)
(-0.279198 0.213217 -0.828677 1.41375 -4.99152 -0.153032)
(0.00904228 0.32324 -1.31665 0.976837 -3.36107 -0.205279)
(0.233175 0.174375 -0.75702 0.631054 -2.06742 -0.292662)
(0.236626 -0.10386 0.250806 0.667718 -2.21849 -0.280743)
(0.0313616 -0.26418 0.833577 1.06644 -3.68681 -0.184603)
(-0.168546 -0.148366 0.47652 1.44437 -5.1638 -0.0664783)
(-0.181627 0.0578595 -0.284054 1.36679 -5.38469 -0.258989)
(-0.0605164 0.154559 -0.73968 1.05551 -4.55161 -0.213168)
(0.0816274 0.143064 -0.696447 0.745311 -3.35961 -0.326852)
(0.151107 0.0472026 -0.194714 0.645544 -2.74512 -0.555189)
(0.0987102 -0.0361731 0.315301 0.689067 -2.81214 -0.540818)
(0.0193928 -0.0590562 0.441432 0.825236 -3.20884 -0.434452)
(-0.00625402 -0.0730864 0.413654 0.936992 -3.60852 -0.617761)
(-0.0482164 -0.108645 0.403997 1.04061 -4.14189 -0.586493)
(-0.108331 -0.0470489 0.118389 1.12656 -4.67365 -0.372819)
(-0.0924972 0.0736297 -0.310393 1.05182 -4.61554 -0.468057)
(0.0110726 0.143304 -0.52439 0.845728 -3.84062 -0.313459)
(0.149563 0.091866 -0.271211 0.649251 -2.90061 -0.33497)
(0.191088 -0.0790004 0.468143 0.72003 -2.86343 -0.446222)
(0.0426553 -0.218105 1.02326 1.02746 -3.88925 -0.254057)
(-0.142626 -0.150336 0.75996 1.40726 -5.14913 0.0489599)
(-0.149177 0.0644864 0.0891043 1.39669 -5.4362 -0.0117334)
(-0.0422232 0.154382 -0.20462 1.14149 -4.74636 -0.370978)
(-0.0597683 0.13232 -0.149442 0.90573 -3.8784 -0.331229)
(-0.28558 0.133326 -0.511349 0.879785 -3.27008 -0.451117)
(-0.571709 0.19645 -2.00209 0.979869 -2.846 -0.897049)
(-1.10859 0.172812 -4.38722 0.988651 -2.3697 -0.802832)
(-3.05361 0.113346 -4.34067 0.967672 -3.43432 8.20727)
(-1.51656 -0.0547688 1.32327 1.57281 -6.34143 2.60442)
(-0.579125 0.097819 0.385353 1.52774 -4.80525 0.301939)
(-0.237335 0.210806 -0.776335 1.39323 -3.9884 -0.0362753)
(0.0206397 0.302587 -1.14813 1.02425 -2.65568 -0.167624)
(0.211361 0.160178 -0.634085 0.723158 -1.60423 -0.258446)
(0.207594 -0.0950909 0.250937 0.768639 -1.7264 -0.237693)
(0.0235135 -0.244616 0.74489 1.13373 -2.91576 -0.126712)
(-0.155594 -0.147921 0.424262 1.46908 -4.13818 -0.0291421)
(-0.171746 0.0354646 -0.267109 1.40551 -4.38705 -0.124226)
(-0.0584083 0.132357 -0.703942 1.11553 -3.76812 -0.149444)
(0.0796039 0.134577 -0.656135 0.802983 -2.80826 -0.296082)
(0.145759 0.0479365 -0.183467 0.705122 -2.26218 -0.552902)
(0.0965721 -0.0346415 0.299895 0.744872 -2.29828 -0.525288)
(0.0192071 -0.0533548 0.431385 0.864193 -2.60503 -0.403724)
(-0.0118638 -0.0685338 0.401539 0.979718 -2.91145 -0.524554)
(-0.0505208 -0.108804 0.356432 1.0795 -3.37394 -0.493021)
(-0.0999471 -0.0530164 0.0877915 1.15057 -3.85955 -0.316173)
(-0.0833039 0.061205 -0.296062 1.08883 -3.83616 -0.363907)
(0.0145515 0.131373 -0.479929 0.892956 -3.20262 -0.257906)
(0.142126 0.0929604 -0.227749 0.707867 -2.41477 -0.302585)
(0.174238 -0.0657552 0.449105 0.795537 -2.32439 -0.445564)
(0.0365667 -0.199365 0.931839 1.09106 -3.13193 -0.25143)
(-0.125462 -0.140728 0.695246 1.43641 -4.13882 -0.00980771)
(-0.13245 0.0499539 0.128774 1.44831 -4.41204 -0.0558076)
(-0.0416815 0.136854 -0.141392 1.2024 -3.89635 -0.300672)
(-0.0564734 0.129813 -0.102346 0.970638 -3.20332 -0.300605)
(-0.265372 0.146668 -0.434821 0.923744 -2.63366 -0.427655)
(-0.538854 0.206979 -1.82871 0.998134 -2.15001 -0.813283)
(-1.05617 0.174341 -4.0804 1.00533 -1.68317 -0.64293)
(-2.9267 0.111907 -4.0575 1.18798 -2.65978 7.59308)
(-1.31359 -0.068972 1.05437 1.67769 -5.22614 1.8804)
(-0.492911 0.092968 0.253968 1.44919 -3.77404 0.41487)
(-0.193917 0.206331 -0.703232 1.34476 -3.04233 0.031109)
(0.0276834 0.277604 -0.975072 1.05093 -1.94742 -0.144098)
(0.185957 0.145621 -0.516415 0.804664 -1.09365 -0.235796)
(0.176781 -0.0815232 0.243278 0.855295 -1.18267 -0.2056)
(0.0151349 -0.218247 0.647528 1.17812 -2.1283 -0.0831156)
(-0.141798 -0.144422 0.36083 1.46776 -3.13635 -0.0107463)
(-0.159086 0.0103521 -0.261151 1.40879 -3.40705 -0.0274599)
(-0.0535107 0.101745 -0.669661 1.14472 -2.98075 -0.11819)
(0.0775794 0.117085 -0.609903 0.836212 -2.24199 -0.277041)
(0.137916 0.0464723 -0.169358 0.722227 -1.7661 -0.501954)
(0.09289 -0.0306917 0.278368 0.763645 -1.7686 -0.479626)
(0.0190703 -0.0463577 0.417117 0.875297 -2.00287 -0.369402)
(-0.0178354 -0.0625788 0.385021 0.97324 -2.22816 -0.40069)
(-0.0528213 -0.105171 0.300669 1.06656 -2.62455 -0.372664)
(-0.0902814 -0.0556563 0.0508816 1.14144 -3.06394 -0.273834)
(-0.07231 0.0478615 -0.283526 1.09185 -3.05874 -0.289906)
(0.019131 0.114707 -0.43355 0.911522 -2.56445 -0.230325)
(0.133467 0.0921947 -0.179408 0.743596 -1.91113 -0.282678)
(0.154938 -0.046366 0.429588 0.826113 -1.76464 -0.400839)
(0.029997 -0.169846 0.835893 1.10968 -2.3713 -0.228993)
(-0.107686 -0.124483 0.628292 1.4298 -3.15723 -0.0700527)
(-0.114433 0.0334616 0.161497 1.45307 -3.40874 -0.102556)
(-0.0387253 0.112107 -0.0789269 1.21957 -3.05218 -0.246597)
(-0.0516022 0.121563 -0.0483114 1.00273 -2.51796 -0.288755)
(-0.245898 0.155875 -0.346864 0.944706 -1.99388 -0.420646)
(-0.510372 0.21365 -1.65184 1.0021 -1.46901 -0.74968)
(-1.01196 0.172425 -3.79717 1.01796 -1.01132 -0.521897)
(-2.82497 0.0993878 -3.82648 1.30799 -1.80062 7.1652)
(-1.11114 -0.0666163 0.800968 1.73472 -4.08912 1.20802)
(-0.406271 0.0945712 0.142936 1.36406 -2.82722 0.445992)
(-0.153237 0.20339 -0.614655 1.28703 -2.15757 0.0653895)
(0.0307455 0.25332 -0.805396 1.07221 -1.24052 -0.135241)
(0.159523 0.132036 -0.406423 0.880351 -0.540231 -0.222365)
(0.146445 -0.0664229 0.233157 0.932212 -0.594091 -0.180041)
(0.00607533 -0.189487 0.551266 1.20924 -1.32984 -0.0442252)
(-0.12954 -0.139696 0.290476 1.4546 -2.16296 0.00214152)
(-0.145993 -0.0154441 -0.269145 1.3947 -2.45643 0.0406051)
(-0.0468191 0.066684 -0.645051 1.15518 -2.20134 -0.106785)
(0.0766548 0.0912514 -0.567588 0.854028 -1.6723 -0.268199)
(0.12982 0.0413034 -0.154593 0.711127 -1.2801 -0.420772)
(0.0884694 -0.0236365 0.255309 0.751636 -1.24729 -0.401444)
(0.0185993 -0.0388187 0.399233 0.870342 -1.41405 -0.333217)
(-0.0236991 -0.0573283 0.364216 0.946078 -1.57932 -0.278773)
(-0.0547588 -0.0976079 0.242886 1.03086 -1.91577 -0.255679)
(-0.0804478 -0.0548375 0.0133998 1.1121 -2.30053 -0.239345)
(-0.0610121 0.0351439 -0.27399 1.06073 -2.30604 -0.213624)
(0.0245121 0.0970471 -0.390955 0.910545 -1.93867 -0.219339)
(0.12549 0.0889543 -0.129743 0.764571 -1.40084 -0.274876)
(0.136048 -0.0244361 0.415386 0.827736 -1.20768 -0.330023)
(0.023236 -0.132054 0.749401 1.10183 -1.62767 -0.191981)
(-0.0921146 -0.1032 0.56665 1.40485 -2.21307 -0.117916)
(-0.0977912 0.0160023 0.184413 1.43296 -2.44002 -0.140602)
(-0.0337064 0.0835287 -0.0248131 1.2113 -2.22525 -0.204523)
(-0.0442008 0.110295 0.00816319 1.01074 -1.8371 -0.284952)
(-0.226756 0.162355 -0.249724 0.951011 -1.36011 -0.421457)
(-0.487188 0.218429 -1.47479 1.00546 -0.802453 -0.703371)
(-0.981182 0.170657 -3.5481 1.03975 -0.341405 -0.43196)
(-2.75916 0.0798565 -3.65851 1.35622 -0.915689 6.92211)
(-0.934426 -0.0498757 0.59278 1.7482 -2.95115 0.663113)
(-0.328616 0.103587 0.069757 1.28094 -1.95892 0.430492)
(-0.118757 0.20489 -0.511555 1.23439 -1.32747 0.0764582)
(0.0299294 0.232701 -0.64286 1.09653 -0.53082 -0.136534)
(0.13337 0.119658 -0.305658 0.95272 0.0549418 -0.212767)
(0.117919 -0.052131 0.223075 1.00326 0.0363304 -0.157952)
(-0.00355781 -0.161456 0.461735 1.23471 -0.523407 -0.00677934)
(-0.120045 -0.13462 0.216198 1.44137 -1.21447 0.0133011)
(-0.133974 -0.0405599 -0.29184 1.37778 -1.53336 0.0823861)
(-0.0394935 0.0296789 -0.635069 1.15661 -1.43317 -0.106715)
(0.0771471 0.0581359 -0.537746 0.862761 -1.10439 -0.266731)
(0.123434 0.0312349 -0.143165 0.68826 -0.817321 -0.33764)
(0.0842509 -0.0132598 0.234884 0.725146 -0.754378 -0.315717)
(0.0173002 -0.0297576 0.379506 0.86124 -0.841318 -0.303011)
(-0.0290968 -0.0530482 0.338978 0.920834 -0.961732 -0.188606)
(-0.0559977 -0.087444 0.187715 0.995622 -1.24535 -0.170671)
(-0.0712103 -0.0529328 -0.021409 1.07565 -1.57389 -0.215202)
(-0.0501832 0.0237063 -0.267458 1.00763 -1.60353 -0.135647)
(0.0302312 0.0818243 -0.353645 0.898503 -1.33182 -0.218629)
(0.119056 0.083251 -0.0820642 0.776015 -0.889252 -0.276086)
(0.119751 -0.00225983 0.40939 0.816578 -0.66533 -0.25784)
(0.0167306 -0.088585 0.682243 1.08534 -0.906397 -0.155589)
(-0.0806931 -0.0784135 0.516003 1.37649 -1.30478 -0.150816)
(-0.084282 -0.00192936 0.196388 1.40525 -1.50722 -0.168026)
(-0.0268683 0.0532803 0.0165326 1.18928 -1.42329 -0.1717)
(-0.0338198 0.0979402 0.0641921 1.0029 -1.16937 -0.284505)
(-0.207754 0.167926 -0.145094 0.949304 -0.735696 -0.424791)
(-0.469044 0.223368 -1.29859 1.01601 -0.141709 -0.671539)
(-0.965793 0.169307 -3.33047 1.07777 0.341993 -0.36494)
(-2.72906 0.0585213 -3.54805 1.37279 -0.0351288 6.81347)
(-0.80099 -0.0217355 0.45282 1.72516 -1.83267 0.291301)
(-0.267234 0.119561 0.0495832 1.20754 -1.158 0.390341)
(-0.0929884 0.212421 -0.392104 1.19485 -0.538939 0.0726172)
(0.0249679 0.216935 -0.488573 1.12527 0.189179 -0.137359)
(0.10798 0.108385 -0.215226 1.02275 0.692858 -0.20078)
(0.0919022 -0.0398945 0.213252 1.07132 0.708673 -0.137639)
(-0.0134621 -0.135765 0.381551 1.26176 0.29381 0.0228328)
(-0.113696 -0.129515 0.140639 1.43617 -0.281151 0.0217343)
(-0.123942 -0.064381 -0.32868 1.36605 -0.628936 0.100948)
(-0.0326588 -0.00783736 -0.642435 1.15507 -0.674312 -0.111031)
(0.0789062 0.0197331 -0.527221 0.866123 -0.539435 -0.268683)
(0.120301 0.016962 -0.139668 0.670298 -0.378141 -0.283996)
(0.0812285 -6.65137e-05 0.220551 0.705444 -0.288927 -0.260991)
(0.0147788 -0.0186345 0.361172 0.85679 -0.279801 -0.286228)
(-0.0339465 -0.0493426 0.309868 0.907903 -0.362106 -0.143623)
(-0.0564937 -0.0763424 0.137647 0.971755 -0.600506 -0.130398)
(-0.0629986 -0.0519276 -0.0541101 1.04278 -0.8802 -0.206837)
(-0.0399214 0.0135622 -0.263469 0.958627 -0.959059 -0.0897981)
(0.0358076 0.0702259 -0.319587 0.882363 -0.744631 -0.225127)
(0.114313 0.0756127 -0.0391761 0.780139 -0.378615 -0.280769)
(0.107542 0.0191269 0.412676 0.807153 -0.138778 -0.210129)
(0.0109356 -0.0419591 0.640912 1.073 -0.202617 -0.1344)
(-0.0746011 -0.0516882 0.480142 1.35545 -0.423228 -0.171017)
(-0.0749564 -0.0202827 0.196755 1.38197 -0.603192 -0.187063)
(-0.0183544 0.0221887 0.0426244 1.16558 -0.648364 -0.156466)
(-0.0202547 0.0855928 0.118518 0.987167 -0.51801 -0.288266)
(-0.188764 0.174376 -0.0340635 0.943668 -0.120414 -0.426986)
(-0.455831 0.231308 -1.12316 1.03494 0.524214 -0.647395)
(-0.964523 0.169383 -3.1374 1.13298 1.05505 -0.317028)
(-2.72699 0.0409309 -3.47824 1.38809 0.843841 6.78131)
(-0.720189 0.0126477 0.394676 1.67286 -0.747563 0.11107)
(-0.226601 0.14082 0.092859 1.14933 -0.408414 0.33688)
(-0.0774324 0.225667 -0.253436 1.17181 0.224139 0.0594001)
(0.0154571 0.206013 -0.342217 1.15692 0.926864 -0.128422)
(0.0834032 0.0983917 -0.135797 1.09079 1.37572 -0.182171)
(0.0687524 -0.030066 0.203089 1.13771 1.42524 -0.11871)
(-0.0232323 -0.112885 0.311778 1.2943 1.13032 0.0395726)
(-0.110441 -0.124679 0.0658871 1.44283 0.650354 0.0253427)
(-0.116419 -0.0869992 -0.378275 1.36254 0.267295 0.0993225)
(-0.0271653 -0.0449837 -0.668177 1.15367 0.0796477 -0.115454)
(0.0816904 -0.0208512 -0.540132 0.86623 0.0237505 -0.271117)
(0.121335 0.000845965 -0.146853 0.668652 0.0502081 -0.281844)
(0.0800899 0.0144461 0.214476 0.70575 0.165992 -0.259331)
(0.0108402 -0.00633629 0.346703 0.861222 0.279668 -0.286596)
(-0.0382906 -0.0459347 0.277797 0.909586 0.232994 -0.146018)
(-0.0563093 -0.065471 0.0937743 0.96189 0.0318194 -0.136552)
(-0.056 -0.0514962 -0.0862461 1.01963 -0.209411 -0.217877)
(-0.030204 0.00430555 -0.261555 0.936625 -0.350223 -0.109932)
(0.0408187 0.0604468 -0.286594 0.866449 -0.173074 -0.237168)
(0.111161 0.0671563 -0.00328815 0.777875 0.130103 -0.284596)
(0.100265 0.0395873 0.425065 0.809212 0.381847 -0.206447)
(0.0062198 0.00524476 0.628657 1.07163 0.494282 -0.138228)
(-0.0743679 -0.024487 0.460991 1.34754 0.44533 -0.181664)
(-0.0703805 -0.0388424 0.185034 1.36992 0.284687 -0.200832)
(-0.00826738 -0.00948635 0.0519484 1.14971 0.108383 -0.170147)
(-0.00331198 0.0732993 0.170698 0.969096 0.118399 -0.299297)
(-0.169315 0.182388 0.0833641 0.936313 0.487777 -0.426999)
(-0.44678 0.24418 -0.945394 1.06015 1.20455 -0.624917)
(-0.974367 0.175937 -2.9576 1.20131 1.81441 -0.282694)
(-2.74489 0.0310994 -3.43115 1.41731 1.73603 6.78721)
(-0.694646 0.0472265 0.421943 1.5941 0.294505 0.12722)
(-0.208005 0.165079 0.203696 1.10832 0.307721 0.273576)
(-0.072637 0.242861 -0.0938517 1.1663 0.979196 0.0378317)
(0.00124023 0.199182 -0.202828 1.19137 1.68939 -0.109243)
(0.0594938 0.089983 -0.0673281 1.15578 2.10636 -0.15607)
(0.0485425 -0.02261 0.191519 1.20139 2.18918 -0.101895)
(-0.0324603 -0.0927772 0.252089 1.33213 1.99439 0.0384013)
(-0.110017 -0.120368 -0.00671804 1.46071 1.59426 0.0222056)
(-0.111563 -0.108662 -0.438906 1.36753 1.1661 0.0767686)
(-0.0233708 -0.0810263 -0.71152 1.15351 0.834312 -0.119706)
(0.085297 -0.060048 -0.576884 0.863686 0.587423 -0.273359)
(0.126609 -0.0142779 -0.165279 0.683425 0.486554 -0.33141)
(0.0809861 0.0282384 0.216613 0.726891 0.630822 -0.312987)
(0.00558249 0.00553295 0.336607 0.874526 0.847444 -0.30425)
(-0.0420698 -0.042626 0.24342 0.925734 0.835504 -0.19559)
(-0.0553757 -0.0555249 0.0567585 0.966217 0.663178 -0.188784)
(-0.0502875 -0.0500477 -0.116937 1.0066 0.451016 -0.24699)
(-0.021342 -0.00467246 -0.261505 0.941229 0.260669 -0.190027)
(0.0450175 0.0493464 -0.25544 0.851761 0.389044 -0.252857)
(0.109572 0.0592919 0.0246583 0.770054 0.636527 -0.28756)