/*--------------------------------*- C++ -*----------------------------------*\
| =========                 |                                                 |
| \\      /  F ield         | OpenFOAM: The Open Source CFD Toolbox           |
|  \\    /   O peration     | Version:  2106                                  |
|   \\  /    A nd           | Website:  www.openfoam.com                      |
|    \\/     M anipulation  |                                                 |
\*---------------------------------------------------------------------------*/
FoamFile
{
    version     2.0;
    format      ascii;
    arch        "LSB;label=32;scalar=64";
    class       volSymmTensorField;
    location    "563";
    object      sigma;
}
// * * * * * * * * * * * * * * * * * * * * * * * * * * * * * * * * * * * * * //

dimensions      [1 -1 -2 0 0 0 0];

internalField   nonuniform List<symmTensor> 
9000
(
(-7.30647e+09 7.97595e+07 -4.71836e+08 -3.86232e+09 -3.64874e+09 -3.94835e+10)
(-1.19705e+10 -3.92588e+07 1.12005e+09 -4.01843e+09 -4.99679e+09 -3.65068e+10)
(-1.30422e+10 5.97961e+07 2.08124e+09 -4.2807e+09 -3.72226e+09 -3.76205e+10)
(-7.96482e+09 -1.15308e+07 2.20605e+09 -2.45305e+09 -2.19745e+09 -2.17119e+10)
(-4.40051e+09 -3.7561e+06 2.08376e+08 -1.17364e+09 -1.13826e+09 -1.0418e+10)
(-4.60298e+09 6.67027e+06 -1.99852e+09 -1.30168e+09 -1.25442e+09 -1.18263e+10)
(-7.73571e+09 2.01824e+07 -2.54854e+09 -2.50231e+09 -2.45357e+09 -2.25435e+10)
(-1.05889e+10 -8.12284e+06 -1.10481e+09 -3.652e+09 -3.48717e+09 -3.18332e+10)
(-1.11777e+10 -1.38578e+07 9.18682e+08 -3.71392e+09 -3.67431e+09 -3.35835e+10)
(-9.17598e+09 2.45682e+06 2.13679e+09 -2.96584e+09 -2.69989e+09 -2.65475e+10)
(-5.84225e+09 -1.25404e+07 1.50789e+09 -1.7712e+09 -1.76744e+09 -1.56835e+10)
(-4.4123e+09 -647270 1.04809e+08 -1.27592e+09 -1.39732e+09 -1.16192e+10)
(-5.31234e+09 8.78935e+06 -5.67939e+08 -1.64931e+09 -1.58063e+09 -1.48919e+10)
(-6.10211e+09 -3.01603e+06 -5.74519e+08 -1.98674e+09 -1.90831e+09 -1.74312e+10)
(-7.09412e+09 -7.26803e+06 -6.04267e+08 -2.24045e+09 -2.23082e+09 -2.03829e+10)
(-7.92443e+09 7.71221e+06 -5.05038e+08 -2.5113e+09 -2.54796e+09 -2.28104e+10)
(-8.76797e+09 -430899 -3.41553e+08 -2.89167e+09 -2.86452e+09 -2.55187e+10)
(-9.47955e+09 678502 5.35e+08 -3.10417e+09 -2.94101e+09 -2.80219e+10)
(-7.896e+09 4.1617e+06 1.52858e+09 -2.54085e+09 -2.22684e+09 -2.26532e+10)
(-5.31267e+09 -7.79581e+06 7.09389e+08 -1.55709e+09 -1.52979e+09 -1.38302e+10)
(-5.15809e+09 6.85206e+06 -1.15592e+09 -1.44828e+09 -1.56287e+09 -1.33173e+10)
(-8.03106e+09 3.79324e+07 -2.22896e+09 -2.519e+09 -2.52365e+09 -2.28597e+10)
(-1.12774e+10 3.75796e+07 -1.32625e+09 -3.8387e+09 -3.43383e+09 -3.34629e+10)
(-1.29047e+10 -2.42041e+07 7.04227e+08 -4.32502e+09 -3.48573e+09 -3.8349e+10)
(-1.05325e+10 -3.34772e+07 1.93558e+09 -3.30887e+09 -3.04201e+09 -3.04384e+10)
(-8.86042e+09 -4.83001e+06 1.35579e+09 -2.68759e+09 -2.32723e+09 -2.39945e+10)
(-7.91328e+09 -9.16962e+06 -3.80718e+08 -2.33197e+09 -2.15631e+09 -2.07235e+10)
(-9.15907e+09 -1.65838e+07 -2.02114e+09 -2.78873e+09 -2.40109e+09 -2.4913e+10)
(-8.62672e+09 6.79137e+07 -2.54274e+09 -2.69562e+09 -2.47452e+09 -2.39425e+10)
(-1.86943e+09 1.89712e+07 -1.64815e+09 -8.1594e+08 -8.35206e+08 -8.70161e+09)
(-4.10983e+09 1.29412e+08 -1.02388e+08 -2.55293e+09 -6.47197e+09 -2.24566e+10)
(-6.92398e+09 -6.81993e+07 9.66316e+08 -2.49913e+09 -9.71113e+09 -2.11801e+10)
(-7.93678e+09 5.69682e+07 1.14596e+09 -3.23999e+09 -6.47459e+09 -2.21654e+10)
(-4.77379e+09 -2.04291e+08 9.57963e+08 -1.76113e+09 -3.84998e+09 -1.26651e+10)
(-2.62461e+09 -6.96461e+07 -2.43357e+08 -8.06938e+08 -2.01708e+09 -6.12346e+09)
(-2.75914e+09 9.94369e+07 -1.37751e+09 -9.4603e+08 -2.20681e+09 -7.13749e+09)
(-4.54289e+09 1.67431e+08 -1.47596e+09 -1.75297e+09 -4.43127e+09 -1.32788e+10)
(-5.89185e+09 5.41856e+07 -5.87876e+08 -2.35565e+09 -6.44298e+09 -1.77824e+10)
(-6.75917e+09 -5.59093e+07 5.30412e+08 -2.74793e+09 -6.6448e+09 -2.00772e+10)
(-5.60923e+09 -1.19762e+08 1.27457e+09 -2.29158e+09 -4.75241e+09 -1.59163e+10)
(-3.44926e+09 -1.32879e+08 8.39792e+08 -1.22947e+09 -3.22744e+09 -9.11056e+09)
(-2.57163e+09 -5.66554e+06 2.15412e+07 -8.12466e+08 -2.57596e+09 -6.7827e+09)
(-3.18298e+09 5.36521e+07 -2.94359e+08 -1.19796e+09 -2.8084e+09 -8.87698e+09)
(-3.4968e+09 3.12392e+07 -2.97226e+08 -1.33888e+09 -3.50343e+09 -9.94912e+09)
(-4.31492e+09 2.68235e+07 -3.44288e+08 -1.66574e+09 -4.00674e+09 -1.22772e+10)
(-4.78681e+09 4.39994e+07 -1.98214e+08 -1.8304e+09 -4.6119e+09 -1.3635e+10)
(-5.06645e+09 3.32142e+07 -1.53646e+08 -1.96096e+09 -5.28419e+09 -1.46136e+10)
(-5.84658e+09 -1.07359e+07 2.75802e+08 -2.41685e+09 -5.22645e+09 -1.69688e+10)
(-4.86765e+09 -8.97331e+07 8.80526e+08 -2.01472e+09 -3.87484e+09 -1.36691e+10)
(-3.17562e+09 -7.826e+07 3.4133e+08 -1.10332e+09 -2.76113e+09 -8.13245e+09)
(-3.06335e+09 7.8873e+07 -7.04548e+08 -9.51063e+08 -2.8292e+09 -7.9045e+09)
(-4.76148e+09 2.1479e+08 -1.22264e+09 -1.74158e+09 -4.54135e+09 -1.34985e+10)
(-6.34435e+09 1.96399e+08 -6.86168e+08 -2.54057e+09 -6.19279e+09 -1.87776e+10)
(-7.78106e+09 -6.06614e+07 4.33204e+08 -3.33624e+09 -5.8955e+09 -2.27057e+10)
(-6.60287e+09 -1.74747e+08 1.25698e+09 -2.6274e+09 -5.24771e+09 -1.873e+10)
(-5.56237e+09 -8.70097e+07 9.26046e+08 -2.14303e+09 -3.9625e+09 -1.45468e+10)
(-4.96269e+09 -1.62617e+07 -3.70955e+08 -1.75818e+09 -3.77011e+09 -1.23135e+10)
(-6.00529e+09 -1.47559e+07 -1.94046e+09 -2.3201e+09 -4.05145e+09 -1.52678e+10)
(-5.91916e+09 2.99764e+07 -3.02968e+09 -2.39879e+09 -4.31397e+09 -1.50644e+10)
(-3.7806e+08 -9.51116e+07 -2.25257e+09 6.62794e+08 -1.49259e+09 -1.40988e+09)
(-2.31554e+09 1.4909e+08 2.28321e+08 -2.18076e+09 -7.26357e+09 -1.19105e+10)
(-5.12659e+09 -5.63294e+07 8.16556e+08 -2.68039e+09 -1.05058e+10 -1.44156e+10)
(-5.31293e+09 9.08111e+07 5.66455e+08 -3.24252e+09 -7.10301e+09 -1.35263e+10)
(-3.08437e+09 -1.76719e+08 9.02298e+07 -1.75332e+09 -4.23479e+09 -7.5603e+09)
(-1.61084e+09 -4.66131e+07 -5.35607e+08 -8.16496e+08 -2.23267e+09 -3.72022e+09)
(-1.71751e+09 1.07654e+08 -9.045e+08 -9.68361e+08 -2.41937e+09 -4.47674e+09)
(-2.95996e+09 1.39712e+08 -7.03479e+08 -1.76118e+09 -4.82609e+09 -8.26884e+09)
(-3.68921e+09 4.40333e+07 -2.40687e+08 -2.26278e+09 -7.18972e+09 -1.03982e+10)
(-4.66946e+09 -4.04467e+07 2.4211e+08 -2.85685e+09 -7.20095e+09 -1.28711e+10)
(-3.75737e+09 -1.23787e+08 6.49037e+08 -2.36541e+09 -5.2261e+09 -9.91804e+09)
(-2.2263e+09 -1.28511e+08 3.49082e+08 -1.26425e+09 -3.5899e+09 -5.57105e+09)
(-1.63604e+09 2.29126e+06 -3.80849e+07 -8.34165e+08 -2.80055e+09 -4.2378e+09)
(-2.07557e+09 4.28758e+07 -9.97562e+07 -1.23163e+09 -3.0551e+09 -5.54318e+09)
(-2.2225e+09 2.85845e+07 -1.02384e+08 -1.33557e+09 -3.91096e+09 -5.9768e+09)
(-2.93404e+09 3.32987e+07 -1.54014e+08 -1.74938e+09 -4.34433e+09 -7.8843e+09)
(-3.25224e+09 2.47242e+07 1.409e+07 -1.91686e+09 -5.01441e+09 -8.70571e+09)
(-3.30997e+09 3.00312e+07 -3.16433e+07 -1.9776e+09 -5.87028e+09 -8.87692e+09)
(-4.0547e+09 3.10499e+06 9.36069e+07 -2.54953e+09 -5.66647e+09 -1.09063e+10)
(-3.26359e+09 -9.18142e+07 4.11188e+08 -2.08866e+09 -4.26516e+09 -8.54035e+09)
(-2.04646e+09 -6.97653e+07 7.87577e+07 -1.13939e+09 -3.05737e+09 -5.02811e+09)
(-1.95514e+09 8.22472e+07 -3.77941e+08 -9.70148e+08 -3.0436e+09 -4.99394e+09)
(-3.11883e+09 1.95909e+08 -4.73977e+08 -1.75041e+09 -4.90454e+09 -8.445e+09)
(-3.90034e+09 1.98337e+08 -1.85472e+08 -2.40748e+09 -6.89609e+09 -1.07465e+10)
(-4.99783e+09 -3.90133e+07 2.22147e+08 -3.28958e+09 -6.47665e+09 -1.34657e+10)
(-4.52042e+09 -1.77451e+08 7.24656e+08 -2.75354e+09 -5.59858e+09 -1.2003e+10)
(-3.7424e+09 -1.0603e+08 5.87662e+08 -2.22278e+09 -4.3087e+09 -9.06736e+09)
(-3.42013e+09 -1.81988e+07 -3.84034e+08 -1.83013e+09 -4.10531e+09 -7.63278e+09)
(-4.3495e+09 -393494 -1.89555e+09 -2.4594e+09 -4.34715e+09 -9.79234e+09)
(-4.67839e+09 2.8998e+07 -3.31954e+09 -2.64971e+09 -4.5604e+09 -1.0306e+10)
(5.74322e+08 -1.32568e+08 -2.72896e+09 1.45963e+09 -1.90731e+09 3.72634e+09)
(-9.87901e+08 1.77515e+08 5.60504e+08 -9.80569e+08 -7.37049e+09 -4.76472e+09)
(-3.7661e+09 -1.79759e+07 7.05983e+08 -1.87099e+09 -9.7244e+09 -1.01152e+10)
(-3.31249e+09 1.01736e+08 1.54577e+08 -2.22956e+09 -6.95063e+09 -7.95806e+09)
(-1.78287e+09 -7.33005e+07 -4.95056e+08 -1.16177e+09 -4.19161e+09 -4.23252e+09)
(-8.14869e+08 5.95869e+06 -7.06064e+08 -5.35031e+08 -2.24633e+09 -2.13119e+09)
(-8.89489e+08 8.274e+07 -5.3261e+08 -6.61338e+08 -2.40963e+09 -2.66829e+09)
(-1.71236e+09 5.72883e+07 -1.47907e+08 -1.16371e+09 -4.67022e+09 -4.90212e+09)
(-2.07771e+09 1.31022e+07 1.7857e+06 -1.34482e+09 -7.05452e+09 -5.80391e+09)
(-3.01394e+09 -1.08973e+07 3.27892e+07 -2.05195e+09 -6.90748e+09 -8.04625e+09)
(-2.30537e+09 -8.36633e+07 1.83072e+08 -1.70973e+09 -5.17667e+09 -5.92926e+09)
(-1.28123e+09 -7.48259e+07 -343138 -8.71002e+08 -3.5802e+09 -3.27391e+09)
(-8.79493e+08 1.31803e+07 -7.7766e+07 -5.52507e+08 -2.72706e+09 -2.47153e+09)
(-1.18644e+09 1.5508e+07 3.02001e+07 -8.64934e+08 -2.99745e+09 -3.25915e+09)
(-1.265e+09 1.48145e+07 4.15027e+07 -8.70908e+08 -3.87713e+09 -3.46336e+09)
(-1.83172e+09 2.77553e+07 -1.56945e+06 -1.27944e+09 -4.20776e+09 -4.90729e+09)
(-2.03792e+09 -9.55693e+06 1.54109e+08 -1.38649e+09 -4.85854e+09 -5.39331e+09)
(-1.99456e+09 1.40612e+07 4.39475e+07 -1.31873e+09 -5.77089e+09 -5.24578e+09)
(-2.62549e+09 1.97202e+07 -3.91551e+07 -1.90783e+09 -5.49562e+09 -6.81934e+09)
(-2.0007e+09 -5.70501e+07 6.77316e+07 -1.53482e+09 -4.24745e+09 -5.12154e+09)
(-1.16239e+09 -3.02634e+07 -9.08107e+07 -7.9449e+08 -3.04623e+09 -2.98738e+09)
(-1.04914e+09 6.17124e+07 -1.27094e+08 -6.39576e+08 -2.93462e+09 -2.94382e+09)
(-1.80692e+09 1.05349e+08 6.16308e+07 -1.15481e+09 -4.70288e+09 -5.00851e+09)
(-2.0881e+09 1.28138e+08 1.71023e+08 -1.40913e+09 -6.80382e+09 -5.65997e+09)
(-2.84619e+09 -87486.7 8.35526e+07 -2.22061e+09 -6.45486e+09 -7.32835e+09)
(-2.81865e+09 -1.18826e+08 3.27482e+08 -2.05103e+09 -5.39608e+09 -7.29804e+09)
(-2.3028e+09 -9.07186e+07 3.13241e+08 -1.64237e+09 -4.26071e+09 -5.38183e+09)
(-2.22478e+09 -1.16049e+07 -4.06725e+08 -1.33973e+09 -4.01928e+09 -4.58068e+09)
(-3.05911e+09 2.43172e+07 -1.85259e+09 -1.91727e+09 -4.19501e+09 -6.20205e+09)
(-3.68165e+09 3.28328e+07 -3.50148e+09 -2.20268e+09 -4.24951e+09 -7.09416e+09)
(1.26984e+09 -1.33277e+08 -3.11192e+09 2.32355e+09 -2.29401e+09 7.36563e+09)
(-6.08809e+07 1.90272e+08 8.64361e+08 3.69197e+08 -7.31107e+09 -7.6926e+07)
(-2.60862e+09 2.47321e+07 6.37044e+08 -8.57806e+08 -8.60959e+09 -6.78255e+09)
(-1.85459e+09 1.04583e+08 -1.47771e+08 -1.01161e+09 -6.58151e+09 -4.39369e+09)
(-8.27827e+08 3.92331e+07 -8.52845e+08 -4.39826e+08 -4.05314e+09 -2.1129e+09)
(-2.21295e+08 5.8618e+07 -7.80602e+08 -1.66154e+08 -2.22897e+09 -1.09246e+09)
(-2.62724e+08 4.21156e+07 -2.53527e+08 -2.53753e+08 -2.37466e+09 -1.43904e+09)
(-7.58408e+08 -3.03466e+07 2.289e+08 -4.31551e+08 -4.43148e+09 -2.58908e+09)
(-9.27771e+08 -2.08383e+07 1.66951e+08 -3.03891e+08 -6.65881e+09 -2.90409e+09)
(-1.72337e+09 1.80105e+07 -1.05203e+08 -1.03224e+09 -6.4764e+09 -4.69146e+09)
(-1.2148e+09 -2.56522e+07 -1.45002e+08 -8.67366e+08 -5.02142e+09 -3.28662e+09)
(-5.73353e+08 -1.29298e+07 -2.31291e+08 -3.68571e+08 -3.49731e+09 -1.76566e+09)
(-2.91404e+08 2.09502e+07 -1.02921e+08 -1.9727e+08 -2.65799e+09 -1.21564e+09)
(-5.11119e+08 -7.5698e+06 1.11267e+08 -4.00978e+08 -2.92703e+09 -1.70892e+09)
(-5.66963e+08 -1.09038e+06 1.47005e+08 -3.14841e+08 -3.73085e+09 -1.85927e+09)
(-9.79429e+08 1.29143e+07 1.17433e+08 -6.68105e+08 -4.01872e+09 -2.8438e+09)
(-1.1027e+09 -3.92167e+07 2.38781e+08 -7.02596e+08 -4.62922e+09 -3.10757e+09)
(-1.03033e+09 -2.99556e+06 8.46362e+07 -5.25047e+08 -5.49799e+09 -2.90005e+09)
(-1.52513e+09 3.49199e+07 -1.3069e+08 -1.06678e+09 -5.23689e+09 -4.03228e+09)
(-1.05282e+09 -7.45278e+06 -1.64225e+08 -8.15737e+08 -4.14826e+09 -2.86997e+09)
(-4.93534e+08 1.08075e+07 -1.82988e+08 -3.46601e+08 -2.98275e+09 -1.63046e+09)
(-3.38696e+08 3.16119e+07 6.24438e+07 -2.20941e+08 -2.83536e+09 -1.4571e+09)
(-7.92843e+08 6.9682e+06 4.13937e+08 -4.29733e+08 -4.43966e+09 -2.59965e+09)
(-8.06264e+08 4.25928e+07 3.94538e+08 -2.84974e+08 -6.48023e+09 -2.48258e+09)
(-1.29802e+09 3.35225e+07 1.18163e+07 -9.42623e+08 -6.29438e+09 -3.42204e+09)
(-1.50357e+09 -4.2595e+07 5.91851e+07 -1.12669e+09 -5.17489e+09 -4.0283e+09)
(-1.23024e+09 -5.25254e+07 1.06502e+08 -8.86903e+08 -4.15715e+09 -2.95352e+09)
(-1.33956e+09 2.69721e+06 -4.28075e+08 -7.09837e+08 -3.85465e+09 -2.61221e+09)
(-2.10636e+09 4.98728e+07 -1.80157e+09 -1.20291e+09 -3.95377e+09 -3.88748e+09)
(-2.88747e+09 4.31484e+07 -3.59448e+09 -1.56142e+09 -3.84946e+09 -4.83273e+09)
(1.72929e+09 -1.02201e+08 -3.37194e+09 3.10944e+09 -2.67138e+09 9.66564e+09)
(5.32346e+08 1.71347e+08 1.09656e+09 1.5181e+09 -7.12469e+09 2.77667e+09)
(-1.62655e+09 5.7673e+07 5.92617e+08 7.04213e+07 -7.53973e+09 -4.08585e+09)
(-8.40551e+08 1.12109e+08 -3.59206e+08 5.48586e+07 -6.08754e+09 -2.15912e+09)
(-1.67027e+08 1.29595e+08 -1.03596e+09 2.10241e+08 -3.84625e+09 -8.30446e+08)
(1.95653e+08 9.76308e+07 -7.85479e+08 1.93659e+08 -2.17987e+09 -4.39501e+08)
(1.83664e+08 -1.31586e+06 -6.0701e+07 1.45664e+08 -2.31728e+09 -6.32968e+08)
(-7.98617e+07 -1.01789e+08 4.6065e+08 2.35871e+08 -4.17394e+09 -1.08202e+09)
(-1.43871e+08 -5.04937e+07 2.71877e+08 5.76889e+08 -6.14893e+09 -1.10831e+09)
(-7.72385e+08 4.01549e+07 -1.82885e+08 -9.40571e+07 -6.02845e+09 -2.42457e+09)
(-4.3844e+08 3.19555e+07 -3.5327e+08 -8.37558e+07 -4.79779e+09 -1.59015e+09)
(-7.10249e+07 3.66794e+07 -3.72211e+08 1.0282e+08 -3.37427e+09 -8.05706e+08)
(1.17312e+08 2.46867e+07 -1.19612e+08 1.39704e+08 -2.61792e+09 -4.25619e+08)
(-4.81713e+07 -1.98574e+07 1.61256e+08 3.10873e+07 -2.85381e+09 -7.63104e+08)
(-8.46313e+07 -1.58744e+07 2.21189e+08 1.79908e+08 -3.52849e+09 -8.67439e+08)
(-3.66902e+08 -7.2048e+06 2.01373e+08 -9.41535e+07 -3.82846e+09 -1.48699e+09)
(-4.30426e+08 -5.77448e+07 2.8491e+08 -6.56986e+07 -4.39261e+09 -1.6028e+09)
(-3.54639e+08 -1.52042e+07 1.01841e+08 1.78373e+08 -5.15015e+09 -1.41257e+09)
(-7.27588e+08 4.73173e+07 -1.86627e+08 -2.78921e+08 -4.94803e+09 -2.20645e+09)
(-3.79013e+08 4.00181e+07 -3.01529e+08 -1.42967e+08 -3.98702e+09 -1.4394e+09)
(-1.47713e+07 3.90807e+07 -2.22518e+08 7.99118e+07 -2.88974e+09 -7.5594e+08)
(1.63086e+08 -672843 1.94532e+08 1.77464e+08 -2.77534e+09 -4.82926e+08)
(-7.06813e+07 -6.96047e+07 6.22508e+08 2.26928e+08 -4.19108e+09 -1.00778e+09)
(4.17647e+07 -2.67402e+07 5.15053e+08 6.57394e+08 -6.0361e+09 -5.93315e+08)
(-2.68538e+08 5.29415e+07 -1.29926e+07 1.75956e+08 -6.0141e+09 -1.10616e+09)
(-5.69983e+08 2.53132e+07 -9.91618e+07 -2.54474e+08 -4.96218e+09 -1.91146e+09)
(-4.82368e+08 -5.17018e+06 -2.98795e+07 -1.82146e+08 -4.00775e+09 -1.42963e+09)
(-7.19789e+08 2.18711e+07 -4.39642e+08 -1.31377e+08 -3.64326e+09 -1.39088e+09)
(-1.43907e+09 7.21115e+07 -1.73824e+09 -5.49042e+08 -3.65724e+09 -2.44924e+09)
(-2.2723e+09 5.9951e+07 -3.59839e+09 -9.43426e+08 -3.4427e+09 -3.26403e+09)
(1.99029e+09 -5.10005e+07 -3.48888e+09 3.7407e+09 -2.95892e+09 1.08375e+10)
(8.71204e+08 1.26731e+08 1.22936e+09 2.34563e+09 -6.78684e+09 4.29574e+09)
(-8.35702e+08 7.57111e+07 5.52788e+08 8.2992e+08 -6.57046e+09 -2.01943e+09)
(-1.60744e+08 1.24309e+08 -4.90821e+08 8.56148e+08 -5.48473e+09 -7.85491e+08)
(2.67795e+08 1.88363e+08 -1.09413e+09 7.19546e+08 -3.55359e+09 -9.39254e+07)
(4.75056e+08 1.198e+08 -7.4487e+08 5.05534e+08 -2.07562e+09 -3.89262e+07)
(4.85086e+08 -3.7231e+07 5.9708e+07 4.92825e+08 -2.20914e+09 -1.2363e+08)
(3.66853e+08 -1.50142e+08 5.80991e+08 7.71892e+08 -3.86071e+09 -1.8087e+08)
(3.64417e+08 -7.3164e+07 3.2971e+08 1.22496e+09 -5.55497e+09 -4.06034e+07)
(-1.13541e+08 5.29411e+07 -2.15372e+08 6.60717e+08 -5.53159e+09 -9.79378e+08)
(8.76671e+07 7.6438e+07 -4.66589e+08 5.4916e+08 -4.48273e+09 -5.41094e+08)
(2.66674e+08 6.92335e+07 -4.49895e+08 4.93219e+08 -3.19196e+09 -2.23696e+08)
(3.63489e+08 2.66241e+07 -1.30834e+08 4.26007e+08 -2.54687e+09 -3.48788e+07)
(2.39206e+08 -2.39407e+07 1.92455e+08 3.86014e+08 -2.72362e+09 -2.65983e+08)
(2.29822e+08 -2.83569e+07 2.68707e+08 5.67388e+08 -3.26599e+09 -2.86702e+08)
(3.90029e+07 -2.70018e+07 2.52712e+08 3.79777e+08 -3.59653e+09 -6.7516e+08)
(1.67084e+07 -6.66363e+07 3.05302e+08 4.54799e+08 -4.11132e+09 -6.95638e+08)
(9.6316e+07 -2.15775e+07 1.05391e+08 7.22731e+08 -4.73205e+09 -5.05355e+08)
(-1.80622e+08 5.54674e+07 -2.14516e+08 3.60578e+08 -4.59035e+09 -1.07031e+09)
(7.7968e+07 7.46536e+07 -3.67628e+08 4.02199e+08 -3.74104e+09 -5.6251e+08)
(3.0938e+08 5.33198e+07 -2.31681e+08 4.38971e+08 -2.74546e+09 -2.18644e+08)
(4.72643e+08 -2.86723e+07 2.74805e+08 5.16428e+08 -2.69148e+09 4.11767e+07)
(3.93508e+08 -1.18064e+08 7.2661e+08 7.50104e+08 -3.91175e+09 -7.35614e+07)
(5.61329e+08 -7.09765e+07 5.65645e+08 1.33444e+09 -5.48855e+09 4.45809e+08)
(3.64567e+08 5.9321e+07 -1.01528e+07 1.01083e+09 -5.58597e+09 1.51885e+08)
(3.80921e+07 7.33192e+07 -1.73932e+08 4.58286e+08 -4.6785e+09 -6.71014e+08)
(9.83696e+06 3.7837e+07 -1.03328e+08 3.86808e+08 -3.77738e+09 -5.22775e+08)
(-3.05573e+08 4.25349e+07 -4.37463e+08 3.28337e+08 -3.36773e+09 -6.62397e+08)
(-9.87601e+08 9.12245e+07 -1.66255e+09 -3.79097e+07 -3.29263e+09 -1.58372e+09)
(-1.80679e+09 8.00286e+07 -3.52109e+09 -4.29378e+08 -3.01631e+09 -2.22069e+09)
(2.0995e+09 2.2114e+06 -3.46807e+09 4.19627e+09 -3.08524e+09 1.11392e+10)
(1.02882e+09 7.25067e+07 1.25821e+09 2.85233e+09 -6.30434e+09 4.87962e+09)
(-2.34856e+08 8.07654e+07 5.02157e+08 1.40243e+09 -5.67356e+09 -5.57182e+08)
(2.84067e+08 1.35711e+08 -5.57818e+08 1.39673e+09 -4.80728e+09 4.76996e+07)
(5.44344e+08 2.17966e+08 -1.07012e+09 1.08468e+09 -3.18019e+09 3.15457e+08)
(6.57259e+08 1.27684e+08 -6.78018e+08 7.60454e+08 -1.90722e+09 2.10596e+08)
(6.81097e+08 -6.02203e+07 1.26776e+08 7.77076e+08 -2.03534e+09 1.93456e+08)
(6.44869e+08 -1.76192e+08 6.21823e+08 1.16854e+09 -3.46785e+09 3.21814e+08)
(6.7763e+08 -8.85225e+07 3.51652e+08 1.65666e+09 -4.8999e+09 5.60337e+08)
(3.2183e+08 5.60284e+07 -2.1892e+08 1.21692e+09 -4.96154e+09 -1.04555e+08)
(4.30372e+08 1.02387e+08 -5.13247e+08 1.0156e+09 -4.07781e+09 8.91648e+07)
(4.84195e+08 8.7745e+07 -4.84322e+08 7.9348e+08 -2.94185e+09 1.14534e+08)
(4.93256e+08 2.85814e+07 -1.36591e+08 6.52313e+08 -2.39617e+09 9.39452e+07)
(4.07127e+08 -2.46027e+07 2.10536e+08 6.5337e+08 -2.51243e+09 -3.56237e+07)
(4.24268e+08 -3.7226e+07 2.93651e+08 8.47385e+08 -2.94477e+09 3.41124e+07)
(2.88106e+08 -4.17053e+07 2.77542e+08 7.41454e+08 -3.28976e+09 -2.42883e+08)
(2.92507e+08 -7.02439e+07 3.08117e+08 8.46621e+08 -3.75356e+09 -2.06431e+08)
(3.83741e+08 -2.45958e+07 1.02204e+08 1.10735e+09 -4.2507e+09 2.35819e+07)
(1.83555e+08 5.84016e+07 -2.22824e+08 8.32929e+08 -4.15154e+09 -3.77315e+08)
(3.77044e+08 9.36644e+07 -3.87088e+08 8.04137e+08 -3.41388e+09 -3.56029e+07)
(5.18911e+08 5.88117e+07 -2.24809e+08 7.20196e+08 -2.53867e+09 9.83694e+07)
(6.38667e+08 -4.75543e+07 3.13675e+08 7.85005e+08 -2.5276e+09 2.51043e+08)
(6.61488e+08 -1.43178e+08 7.58474e+08 1.13146e+09 -3.55972e+09 3.95162e+08)
(8.50992e+08 -9.39148e+07 5.72343e+08 1.76334e+09 -4.86204e+09 9.52e+08)
(7.24069e+08 5.7587e+07 7.31651e+06 1.56298e+09 -5.02683e+09 7.64913e+08)
(4.0836e+08 9.98344e+07 -1.91775e+08 9.85968e+08 -4.28121e+09 -7.72941e+06)
(3.19438e+08 6.82643e+07 -1.29168e+08 8.0621e+08 -3.45899e+09 -6.79163e+06)
(-3.73192e+07 6.18697e+07 -4.20383e+08 6.62599e+08 -3.02796e+09 -2.41229e+08)
(-6.84926e+08 1.083e+08 -1.57328e+09 3.24959e+08 -2.86866e+09 -1.06887e+09)
(-1.45347e+09 9.85925e+07 -3.37665e+09 -3.36984e+07 -2.56034e+09 -1.53937e+09)
(2.10428e+09 4.30611e+07 -3.34212e+09 4.48934e+09 -3.01363e+09 1.08601e+10)
(1.06297e+09 2.2864e+07 1.19656e+09 3.08933e+09 -5.70835e+09 4.83367e+09)
(2.0085e+08 7.81058e+07 4.34877e+08 1.7951e+09 -4.8248e+09 4.02329e+08)
(5.69896e+08 1.42756e+08 -5.76801e+08 1.72583e+09 -4.09723e+09 5.45602e+08)
(7.17311e+08 2.2578e+08 -9.95981e+08 1.32892e+09 -2.74812e+09 5.44429e+08)
(7.75051e+08 1.25799e+08 -5.9826e+08 9.62537e+08 -1.67985e+09 3.76108e+08)
(8.05934e+08 -7.02829e+07 1.58936e+08 1.002e+09 -1.79781e+09 3.96139e+08)
(8.15107e+08 -1.84275e+08 6.09881e+08 1.44285e+09 -3.0065e+09 6.03683e+08)
(8.61082e+08 -9.73186e+07 3.46951e+08 1.91813e+09 -4.20923e+09 8.77195e+08)
(6.02581e+08 5.07358e+07 -2.07805e+08 1.59624e+09 -4.3272e+09 4.14701e+08)
(6.46439e+08 1.10603e+08 -5.18621e+08 1.33436e+09 -3.60493e+09 4.60345e+08)
(6.20636e+08 9.62761e+07 -4.88723e+08 1.00989e+09 -2.63247e+09 3.0997e+08)
(5.58206e+08 3.05952e+07 -1.36717e+08 8.18165e+08 -2.16053e+09 1.10807e+08)
(5.04547e+08 -2.46891e+07 2.17267e+08 8.4042e+08 -2.23328e+09 6.98295e+07)
(5.39992e+08 -4.10864e+07 3.01726e+08 1.03659e+09 -2.57676e+09 2.05039e+08)
(4.36015e+08 -4.89772e+07 2.84256e+08 9.99887e+08 -2.90076e+09 -2.51045e+07)
(4.56044e+08 -7.22494e+07 2.972e+08 1.12117e+09 -3.31329e+09 4.09493e+07)
(5.59641e+08 -2.76345e+07 9.43648e+07 1.35695e+09 -3.72392e+09 3.20279e+08)
(4.24824e+08 5.61955e+07 -2.19467e+08 1.1554e+09 -3.65559e+09 5.56367e+07)
(5.66959e+08 9.98385e+07 -3.79137e+08 1.07802e+09 -3.02783e+09 2.78568e+08)
(6.49822e+08 6.09986e+07 -2.08169e+08 9.26779e+08 -2.27499e+09 2.85177e+08)
(7.18732e+08 -5.55162e+07 3.23979e+08 9.82413e+08 -2.27131e+09 3.06557e+08)
(8.01404e+08 -1.51644e+08 7.418e+08 1.38564e+09 -3.12892e+09 5.92654e+08)
(9.91749e+08 -1.02526e+08 5.52154e+08 1.99792e+09 -4.18819e+09 1.14597e+09)
(9.09612e+08 5.18338e+07 3.23938e+07 1.88521e+09 -4.38024e+09 1.01722e+09)
(6.27259e+08 1.0862e+08 -1.7468e+08 1.34287e+09 -3.78213e+09 3.37697e+08)
(5.07412e+08 8.46063e+07 -1.24129e+08 1.09267e+09 -3.06935e+09 2.78528e+08)
(1.33083e+08 7.8049e+07 -3.89633e+08 8.88785e+08 -2.63926e+09 -3.30715e+06)
(-4.79378e+08 1.22659e+08 -1.47137e+09 5.65804e+08 -2.40776e+09 -7.5675e+08)
(-1.17961e+09 1.11274e+08 -3.18818e+09 2.55561e+08 -2.08554e+09 -1.08182e+09)
(2.0483e+09 6.7255e+07 -3.15459e+09 4.64581e+09 -2.75093e+09 1.02765e+10)
(1.0169e+09 -1.4372e+07 1.06772e+09 3.12372e+09 -5.03313e+09 4.38826e+09)
(5.04824e+08 7.22777e+07 3.52471e+08 2.03028e+09 -4.01932e+09 9.85633e+08)
(7.50457e+08 1.44797e+08 -5.62759e+08 1.90015e+09 -3.38976e+09 8.36137e+08)
(8.24915e+08 2.19514e+08 -8.94146e+08 1.48215e+09 -2.28252e+09 6.79368e+08)
(8.50942e+08 1.18419e+08 -5.14096e+08 1.12114e+09 -1.404e+09 4.93844e+08)
(8.84696e+08 -7.05316e+07 1.70324e+08 1.17745e+09 -1.50659e+09 5.33348e+08)
(9.20114e+08 -1.79406e+08 5.66086e+08 1.62304e+09 -2.50373e+09 7.73451e+08)
(9.63127e+08 -1.00756e+08 3.23607e+08 2.05847e+09 -3.50676e+09 1.03244e+09)
(7.83304e+08 3.92927e+07 -1.92902e+08 1.83484e+09 -3.65677e+09 7.30767e+08)
(7.78419e+08 1.04962e+08 -5.0232e+08 1.53632e+09 -3.09102e+09 6.74753e+08)
(7.04876e+08 9.71555e+07 -4.72961e+08 1.15559e+09 -2.28153e+09 4.27475e+08)
(5.95941e+08 3.20555e+07 -1.32231e+08 9.31716e+08 -1.86422e+09 1.16292e+08)
(5.63677e+08 -2.45653e+07 2.14123e+08 9.64592e+08 -1.90974e+09 1.29371e+08)
(6.08339e+08 -4.01053e+07 2.99779e+08 1.15559e+09 -2.17914e+09 3.0013e+08)
(5.32247e+08 -4.96333e+07 2.80915e+08 1.17281e+09 -2.45056e+09 1.16969e+08)
(5.59846e+08 -7.37811e+07 2.74357e+08 1.29928e+09 -2.81278e+09 1.943e+08)
(6.63601e+08 -3.19512e+07 8.03988e+07 1.50223e+09 -3.1739e+09 4.83986e+08)
(5.81303e+08 5.00023e+07 -2.1079e+08 1.35841e+09 -3.13444e+09 3.26259e+08)
(6.83072e+08 9.73187e+07 -3.56116e+08 1.24989e+09 -2.60819e+09 4.62681e+08)
(7.29134e+08 6.23866e+07 -1.84181e+08 1.06847e+09 -1.96982e+09 4.00084e+08)
(7.57968e+08 -5.36495e+07 3.17919e+08 1.11718e+09 -1.94457e+09 3.25168e+08)
(8.69147e+08 -1.48116e+08 6.94903e+08 1.53793e+09 -2.64121e+09 6.67648e+08)
(1.04366e+09 -1.02094e+08 5.16093e+08 2.09619e+09 -3.4968e+09 1.17376e+09)
(9.92239e+08 4.37931e+07 6.05112e+07 2.04205e+09 -3.69175e+09 1.08558e+09)
(7.58524e+08 1.04841e+08 -1.38958e+08 1.56239e+09 -3.22328e+09 5.35264e+08)
(6.17695e+08 8.98592e+07 -1.01487e+08 1.27337e+09 -2.63384e+09 4.33345e+08)
(2.40001e+08 9.05422e+07 -3.4726e+08 1.03141e+09 -2.22073e+09 1.27585e+08)
(-3.35802e+08 1.33411e+08 -1.35963e+09 7.17883e+08 -1.93273e+09 -5.56742e+08)
(-9.62318e+08 1.17358e+08 -2.97938e+09 4.61932e+08 -1.60928e+09 -7.54673e+08)
(1.96898e+09 7.69738e+07 -2.94777e+09 4.69986e+09 -2.33226e+09 9.61631e+09)
(9.23773e+08 -3.71938e+07 8.98637e+08 3.02179e+09 -4.30649e+09 3.72236e+09)
(7.09177e+08 6.64294e+07 2.61695e+08 2.13996e+09 -3.26327e+09 1.30751e+09)
(8.62247e+08 1.4316e+08 -5.27213e+08 1.96957e+09 -2.70854e+09 9.98788e+08)
(8.91143e+08 2.05488e+08 -7.79701e+08 1.5727e+09 -1.80349e+09 7.63292e+08)
(8.99213e+08 1.08777e+08 -4.30611e+08 1.24678e+09 -1.08944e+09 5.80165e+08)
(9.34362e+08 -6.45767e+07 1.70412e+08 1.31537e+09 -1.1724e+09 6.31965e+08)
(9.85614e+08 -1.6612e+08 5.05859e+08 1.73957e+09 -1.9801e+09 8.83595e+08)
(1.01719e+09 -1.00454e+08 2.88118e+08 2.12052e+09 -2.81026e+09 1.10307e+09)
(9.00704e+08 2.40842e+07 -1.81395e+08 1.97183e+09 -2.97926e+09 9.32975e+08)
(8.55821e+08 8.98843e+07 -4.7805e+08 1.65305e+09 -2.55895e+09 7.93999e+08)
(7.55668e+08 9.13918e+07 -4.45584e+08 1.24692e+09 -1.9071e+09 5.00538e+08)
(6.26427e+08 3.25539e+07 -1.24594e+08 1.00629e+09 -1.53625e+09 1.51962e+08)
(6.03995e+08 -2.35252e+07 2.0366e+08 1.04426e+09 -1.56078e+09 1.81687e+08)
(6.50166e+08 -3.62335e+07 2.92955e+08 1.224e+09 -1.76909e+09 3.62951e+08)
(6.07107e+08 -4.65417e+07 2.72687e+08 1.28049e+09 -1.97718e+09 2.58936e+08)
(6.36787e+08 -7.38896e+07 2.42055e+08 1.40419e+09 -2.29126e+09 3.36284e+08)
(7.2304e+08 -3.60037e+07 5.96196e+07 1.57227e+09 -2.62104e+09 5.762e+08)
(6.78309e+08 4.15646e+07 -2.01057e+08 1.47431e+09 -2.60516e+09 4.8775e+08)
(7.49579e+08 8.92163e+07 -3.25922e+08 1.34611e+09 -2.17491e+09 5.64552e+08)
(7.74527e+08 6.31299e+07 -1.54665e+08 1.15872e+09 -1.63988e+09 4.72522e+08)
(7.82331e+08 -4.46547e+07 3.04989e+08 1.20426e+09 -1.5785e+09 3.61421e+08)
(9.01312e+08 -1.3539e+08 6.32816e+08 1.61742e+09 -2.12691e+09 7.05731e+08)
(1.0478e+09 -9.55694e+07 4.72145e+08 2.10848e+09 -2.81069e+09 1.12634e+09)
(1.01825e+09 3.39239e+07 8.74512e+07 2.09175e+09 -2.99624e+09 1.0703e+09)
(8.38427e+08 9.2938e+07 -9.60202e+07 1.68329e+09 -2.64603e+09 6.62545e+08)
(6.79589e+08 8.81564e+07 -6.95036e+07 1.37711e+09 -2.17539e+09 5.13798e+08)
(3.06622e+08 9.9603e+07 -2.95289e+08 1.11416e+09 -1.78853e+09 1.96415e+08)
(-2.32067e+08 1.4056e+08 -1.24188e+09 8.11709e+08 -1.46008e+09 -4.18433e+08)
(-7.88481e+08 1.18396e+08 -2.77102e+09 6.11493e+08 -1.14305e+09 -5.07846e+08)
(1.89401e+09 7.59963e+07 -2.75547e+09 4.6883e+09 -1.80627e+09 9.03804e+09)
(8.10392e+08 -4.68392e+07 7.16027e+08 2.84178e+09 -3.5491e+09 2.97944e+09)
(8.40521e+08 6.3135e+07 1.72471e+08 2.15941e+09 -2.56297e+09 1.457e+09)
(9.29359e+08 1.40121e+08 -4.77569e+08 1.97428e+09 -2.06606e+09 1.08217e+09)
(9.30485e+08 1.88522e+08 -6.62176e+08 1.62538e+09 -1.3225e+09 8.13828e+08)
(9.29499e+08 9.88922e+07 -3.507e+08 1.34967e+09 -7.42701e+08 6.43084e+08)
(9.6652e+08 -5.53628e+07 1.65211e+08 1.4273e+09 -8.03156e+08 7.06843e+08)
(1.02798e+09 -1.48212e+08 4.39739e+08 1.81777e+09 -1.44534e+09 9.61256e+08)
(1.0452e+09 -9.80777e+07 2.45042e+08 2.13825e+09 -2.12991e+09 1.1342e+09)
(9.77334e+08 7.03015e+06 -1.77349e+08 2.04208e+09 -2.31375e+09 1.06672e+09)
(8.98588e+08 6.90959e+07 -4.5477e+08 1.71231e+09 -2.02424e+09 8.54664e+08)
(7.84624e+08 7.95129e+07 -4.14188e+08 1.29981e+09 -1.52254e+09 5.43799e+08)
(6.57445e+08 3.15596e+07 -1.15012e+08 1.05425e+09 -1.19937e+09 2.22907e+08)
(6.38169e+08 -2.08429e+07 1.89041e+08 1.09368e+09 -1.20107e+09 2.4937e+08)
(6.77411e+08 -3.14817e+07 2.83266e+08 1.25888e+09 -1.36016e+09 4.13597e+08)
(6.70307e+08 -4.24976e+07 2.6147e+08 1.34335e+09 -1.51315e+09 4.10308e+08)
(6.98681e+08 -7.14224e+07 2.04186e+08 1.45886e+09 -1.78235e+09 4.81474e+08)
(7.55485e+08 -3.77965e+07 3.4554e+07 1.59195e+09 -2.08074e+09 6.30834e+08)
(7.38902e+08 3.2503e+07 -1.92544e+08 1.52949e+09 -2.07721e+09 5.91132e+08)
(7.8331e+08 7.78978e+07 -2.94426e+08 1.38934e+09 -1.74153e+09 6.13904e+08)
(7.97004e+08 6.26099e+07 -1.21837e+08 1.21135e+09 -1.29786e+09 5.14398e+08)
(8.03029e+08 -3.14874e+07 2.91735e+08 1.25883e+09 -1.19837e+09 4.25598e+08)
(9.17672e+08 -1.15343e+08 5.67659e+08 1.65089e+09 -1.61036e+09 7.41791e+08)
(1.03024e+09 -8.45368e+07 4.26676e+08 2.07436e+09 -2.14409e+09 1.0558e+09)
(1.01601e+09 2.2724e+07 1.09673e+08 2.08051e+09 -2.3149e+09 1.02408e+09)
(8.85227e+08 7.61327e+07 -5.35996e+07 1.73974e+09 -2.07275e+09 7.4406e+08)
(7.12363e+08 8.25539e+07 -3.28085e+07 1.42836e+09 -1.70996e+09 5.51311e+08)
(3.48487e+08 1.05856e+08 -2.35557e+08 1.15703e+09 -1.35405e+09 2.29815e+08)
(-1.5474e+08 1.45091e+08 -1.12177e+09 8.7239e+08 -9.97613e+08 -3.17256e+08)
(-6.51076e+08 1.17094e+08 -2.57868e+09 7.2745e+08 -6.86793e+08 -3.18275e+08)
(1.83865e+09 6.74947e+07 -2.59858e+09 4.64536e+09 -1.22281e+09 8.62303e+09)
(6.98631e+08 -4.52395e+07 5.43941e+08 2.63127e+09 -2.77694e+09 2.27358e+09)
(9.19057e+08 6.42237e+07 9.70683e+07 2.1213e+09 -1.91998e+09 1.49783e+09)
(9.67385e+08 1.38123e+08 -4.17415e+08 1.94547e+09 -1.46522e+09 1.11585e+09)
(9.52602e+08 1.72031e+08 -5.46949e+08 1.65986e+09 -8.42441e+08 8.3988e+08)
(9.49387e+08 8.96665e+07 -2.76004e+08 1.43891e+09 -3.66874e+08 6.90045e+08)
(9.89466e+08 -4.51081e+07 1.58338e+08 1.52308e+09 -4.0345e+08 7.67748e+08)
(1.05862e+09 -1.28681e+08 3.74368e+08 1.87569e+09 -9.03103e+08 1.02446e+09)
(1.06076e+09 -9.48684e+07 1.97264e+08 2.13655e+09 -1.46888e+09 1.15018e+09)
(1.02671e+09 -1.04882e+07 -1.82778e+08 2.073e+09 -1.66817e+09 1.15343e+09)
(9.20374e+08 4.52854e+07 -4.38057e+08 1.73666e+09 -1.49494e+09 8.79651e+08)
(7.9953e+08 6.19693e+07 -3.85452e+08 1.32745e+09 -1.13567e+09 5.65337e+08)
(6.89365e+08 2.80493e+07 -1.04985e+08 1.08413e+09 -8.69325e+08 3.15456e+08)
(6.72444e+08 -1.60517e+07 1.73382e+08 1.1228e+09 -8.47039e+08 3.39741e+08)
(6.95659e+08 -2.6362e+07 2.71121e+08 1.27408e+09 -9.6029e+08 4.56739e+08)
(7.19984e+08 -3.89319e+07 2.47341e+08 1.37856e+09 -1.07252e+09 5.46762e+08)
(7.45262e+08 -6.6286e+07 1.64945e+08 1.48251e+09 -1.30101e+09 6.08816e+08)
(7.71206e+08 -3.72404e+07 9.0999e+06 1.58107e+09 -1.5623e+09 6.63299e+08)
(7.80658e+08 2.38664e+07 -1.86068e+08 1.54244e+09 -1.56604e+09 6.77019e+08)
(7.96255e+08 6.59052e+07 -2.65499e+08 1.39796e+09 -1.31656e+09 6.30655e+08)