/*--------------------------------*- C++ -*----------------------------------*\
| =========                 |                                                 |
| \\      /  F ield         | OpenFOAM: The Open Source CFD Toolbox           |
|  \\    /   O peration     | Version:  2106                                  |
|   \\  /    A nd           | Website:  www.openfoam.com                      |
|    \\/     M anipulation  |                                                 |
\*---------------------------------------------------------------------------*/
FoamFile
{
    version     2.0;
    format      ascii;
    arch        "LSB;label=32;scalar=64";
    class       volVectorField;
    location    "747";
    object      D;
}
// * * * * * * * * * * * * * * * * * * * * * * * * * * * * * * * * * * * * * //

dimensions      [0 1 0 0 0 0 0];

internalField   nonuniform List<vector> 
9000
(
(0.00615596 0.0225949 0.027427)
(-0.00229507 0.0269919 0.0282403)
(-0.0048603 0.0220225 0.0234707)
(-0.00448124 0.0148532 0.0165464)
(-0.00164993 0.00985485 0.0104581)
(0.00260859 0.0100047 0.0103202)
(0.00475375 0.0148467 0.0156881)
(0.00286294 0.0199777 0.0215663)
(-0.00119461 0.0207602 0.0222224)
(-0.00405454 0.0168671 0.0177483)
(-0.00417835 0.0112504 0.0114047)
(-0.00210909 0.00751643 0.00713037)
(0.000250185 0.00706225 0.00678758)
(0.00116511 0.00861641 0.00905231)
(0.0012832 0.0104095 0.0109358)
(0.00130917 0.0126187 0.0132505)
(0.000150064 0.0142454 0.0152106)
(-0.00131387 0.0131204 0.0140602)
(-0.00174317 0.0110504 0.0117272)
(-0.000402062 0.00930079 0.00937012)
(0.00278827 0.010953 0.0107825)
(0.00485145 0.0165235 0.017396)
(0.00303609 0.0219928 0.0246779)
(-0.00148364 0.0227563 0.0263596)
(-0.00347394 0.0200978 0.0204278)
(-0.00160121 0.0165431 0.0159308)
(0.00158119 0.0148275 0.0141603)
(0.0041149 0.0150291 0.015479)
(0.00410472 0.0135733 0.0149219)
(0.00327436 0.00540728 0.00574887)
(0.00428932 0.0151599 0.0139131)
(-0.00200494 0.0179305 0.0146666)
(-0.00365453 0.014246 0.0122152)
(-0.00319335 0.00910111 0.00884817)
(-0.00105372 0.00604985 0.00562581)
(0.00214033 0.00628981 0.00554832)
(0.00374168 0.00949395 0.00847261)
(0.00226361 0.0127896 0.0117155)
(-0.000854961 0.0134018 0.0120094)
(-0.00304617 0.010932 0.00952852)
(-0.00317791 0.0073518 0.00602688)
(-0.00164342 0.0050443 0.00361629)
(0.000122162 0.00474619 0.00342159)
(0.000765431 0.00554019 0.00474387)
(0.000835774 0.00674924 0.00562234)
(0.000924822 0.00821914 0.00683805)
(9.12264e-05 0.00919699 0.00800363)
(-0.000979003 0.00846206 0.00731081)
(-0.00129962 0.00706455 0.0061861)
(-0.000361784 0.00601305 0.00492928)
(0.00202636 0.00719128 0.00565882)
(0.00361844 0.0105979 0.00938793)
(0.0022306 0.0136688 0.0135505)
(-0.00125898 0.0138342 0.0144456)
(-0.00264306 0.0133175 0.0105665)
(-0.000970967 0.011164 0.00813779)
(0.0017609 0.0100106 0.00731733)
(0.00416174 0.0097422 0.00841933)
(0.00465331 0.008601 0.00822919)
(0.00491915 0.00370676 0.00105728)
(0.00227217 0.0121201 0.00711524)
(-0.00167881 0.0138861 0.00879435)
(-0.00259875 0.010745 0.00722171)
(-0.0020192 0.00643706 0.00524685)
(-0.000463051 0.00414064 0.00342106)
(0.00174412 0.00438997 0.00346414)
(0.00283463 0.00685078 0.00536752)
(0.00172867 0.00931408 0.00746343)
(-0.000530248 0.00986543 0.00761914)
(-0.00210591 0.00805881 0.00601058)
(-0.00223318 0.00543945 0.00375058)
(-0.00118421 0.00382247 0.00219113)
(7.35887e-06 0.00361491 0.00206617)
(0.000375534 0.00408597 0.0028735)
(0.000413964 0.00508505 0.00326082)
(0.000582726 0.00621691 0.00400225)
(3.57974e-05 0.00686366 0.00483891)
(-0.000675443 0.00635935 0.00430423)
(-0.000880998 0.00518456 0.00375208)
(-0.000315383 0.00438834 0.00303161)
(0.00131909 0.00530753 0.00352098)
(0.0024337 0.00768961 0.00593348)
(0.00139881 0.00969103 0.00852633)
(-0.00102746 0.00974383 0.00883)
(-0.00177589 0.0101045 0.00640127)
(-0.000353818 0.00854362 0.00499828)
(0.00192866 0.00758944 0.00462757)
(0.00413598 0.00707044 0.00552413)
(0.00493078 0.00618576 0.00532792)
(0.00638599 0.0031315 -0.00164218)
(0.000342586 0.0112064 0.00280349)
(-0.00142553 0.0121211 0.00542061)
(-0.0017199 0.00923522 0.00432004)
(-0.00101651 0.00530785 0.00303613)
(5.74726e-05 0.00320244 0.00204382)
(0.0014108 0.00338579 0.00219673)
(0.00205303 0.00547555 0.00353598)
(0.0012731 0.00755302 0.00496794)
(-0.000232385 0.00808834 0.00505635)
(-0.00126675 0.00660868 0.00395386)
(-0.00137919 0.00446154 0.00242257)
(-0.000753293 0.00316899 0.00139209)
(-7.92789e-05 0.00300197 0.00132018)
(3.5426e-05 0.00338289 0.00178169)
(5.02276e-05 0.00435371 0.00187645)
(0.000290082 0.00533287 0.00234378)
(-1.24044e-05 0.0057932 0.00298455)
(-0.000418087 0.00544235 0.00254712)
(-0.000525779 0.00429901 0.00231506)
(-0.000278215 0.00356648 0.00191122)
(0.000693217 0.00431828 0.00227835)
(0.00136532 0.00621716 0.0038881)
(0.000630952 0.00781263 0.0054734)
(-0.000805992 0.00802882 0.00536726)
(-0.000981776 0.00851156 0.00402648)
(0.000193515 0.00715613 0.00326667)
(0.00206562 0.00622961 0.00317034)
(0.00406166 0.00560058 0.00389056)
(0.00507623 0.00494365 0.00361678)
(0.00762044 0.00303342 -0.00347236)
(-0.00136807 0.0112053 -0.000204777)
(-0.00126978 0.0113236 0.00311303)
(-0.00102535 0.00858303 0.0023508)
(-0.000220774 0.0048972 0.0014898)
(0.000463916 0.00276162 0.00102601)
(0.001128 0.00283209 0.00124798)
(0.00140538 0.00469383 0.00219841)
(0.000904543 0.00657914 0.00316446)
(3.19226e-05 0.00711378 0.00321491)
(-0.000547849 0.00582263 0.002468)
(-0.000641213 0.00392876 0.00145696)
(-0.000369723 0.00277702 0.000813619)
(-0.000131215 0.00261859 0.000784795)
(-0.000229548 0.00302173 0.0010051)
(-0.000236615 0.00403385 0.000922993)
(5.08988e-05 0.00494352 0.00120069)
(-5.1805e-05 0.00529306 0.00168489)
(-0.000214562 0.00504295 0.001342)
(-0.000253272 0.00387842 0.00129279)
(-0.000260588 0.00313992 0.00109124)
(0.000162869 0.00376506 0.00136616)
(0.000460995 0.00543494 0.00239716)
(-1.01079e-05 0.00693926 0.00327008)
(-0.000614708 0.00741223 0.00293559)
(-0.00033419 0.00764701 0.00235776)
(0.000636612 0.00632435 0.00204118)
(0.00216227 0.00535354 0.00213296)
(0.00396117 0.00468994 0.00271751)
(0.00515196 0.0042274 0.00238358)
(0.00860457 0.00308559 -0.00481023)
(-0.00277315 0.0114762 -0.00224243)
(-0.00119256 0.0108428 0.00150185)
(-0.000508022 0.00821251 0.00099958)
(0.000355526 0.00475236 0.000419822)
(0.00073773 0.00254946 0.00026781)
(0.000885324 0.00249379 0.000511267)
(0.000891451 0.00417688 0.00117074)
(0.000624336 0.00594755 0.00179566)
(0.000260679 0.00648489 0.00182598)
(4.41087e-05 0.00533401 0.00134348)
(-3.29544e-05 0.00360159 0.00071995)
(-4.56607e-05 0.00250679 0.000360518)
(-0.000149373 0.00234218 0.000362355)
(-0.000410893 0.00280374 0.00042831)
(-0.000441179 0.00386028 0.000257384)
(-0.000133925 0.00473299 0.000401483)
(-8.21435e-05 0.00501896 0.000750045)
(-6.56015e-05 0.00482827 0.000500652)
(-6.63888e-05 0.00365811 0.000543001)
(-0.000267463 0.00290203 0.000465249)
(-0.000268918 0.00342176 0.000658726)
(-0.000256365 0.00497219 0.0012633)
(-0.000496876 0.00650608 0.00164757)
(-0.000466085 0.00720525 0.00123748)
(0.000139832 0.00709098 0.00112912)
(0.000962225 0.00574193 0.00110931)
(0.00221398 0.00470754 0.00132773)
(0.00384613 0.00403601 0.00181851)
(0.00517822 0.00372291 0.00145717)
(0.00934264 0.00314149 -0.00579088)
(-0.00382354 0.0116815 -0.00349868)
(-0.00116015 0.0103651 0.000410307)
(-0.000147583 0.00784205 0.000105016)
(0.000726106 0.00462752 -0.00028143)
(0.000884079 0.00240504 -0.000274727)
(0.000675431 0.00223638 -5.03574e-05)
(0.000501961 0.00375718 0.000385305)
(0.000427 0.00543701 0.000763831)
(0.000455587 0.0059776 0.000785996)
(0.000514321 0.00495702 0.000503029)
(0.000445957 0.00335608 0.000164296)
(0.000215699 0.00229284 2.8725e-06)
(-0.000139408 0.00211875 2.37892e-05)
(-0.000514632 0.00262913 5.16876e-06)
(-0.000569496 0.00369855 -0.000190408)
(-0.000267301 0.00454128 -0.000136553)
(-0.000103885 0.00479615 9.61309e-05)
(3.40147e-05 0.00463542 -6.92169e-05)
(4.37935e-05 0.00350008 6.76957e-06)
(-0.000298504 0.00274057 -4.03398e-06)
(-0.00060796 0.00317021 0.00011446)
(-0.000789577 0.00463586 0.000412925)
(-0.00083318 0.00621175 0.000487283)
(-0.000361501 0.00704963 0.000103609)
(0.000450111 0.00663852 0.00023817)
(0.00117421 0.00526332 0.000401993)
(0.00221978 0.00417095 0.000699831)
(0.0037186 0.00348686 0.00113064)
(0.00515898 0.00327183 0.000768808)
(0.00985147 0.00313733 -0.00648189)
(-0.0045113 0.0116524 -0.00414567)
(-0.00114102 0.00976043 -0.000302997)
(8.41837e-05 0.00735379 -0.000463365)
(0.000923463 0.00440422 -0.000713321)
(0.000923624 0.00223312 -0.00064493)
(0.00049413 0.00197896 -0.000466733)
(0.000221426 0.00334558 -0.000204879)
(0.00030209 0.00493502 2.19141e-07)
(0.000620157 0.0054803 2.21623e-05)
(0.000875888 0.00459356 -0.000109109)
(0.000807341 0.00312509 -0.000243721)
(0.000418364 0.00210106 -0.000274921)
(-0.000109142 0.00191947 -0.000243229)
(-0.000555563 0.00244691 -0.000297383)
(-0.000634503 0.00348555 -0.000477737)
(-0.000355034 0.00429313 -0.000481201)
(-0.000117772 0.00453897 -0.000343169)
(9.29695e-05 0.0043915 -0.000439969)
(9.22848e-05 0.00333141 -0.000361853)
(-0.000349031 0.00259152 -0.000344481)
(-0.000865027 0.00294465 -0.000294472)
(-0.00115995 0.00432265 -0.000208139)
(-0.00104195 0.00589888 -0.000310676)
(-0.000294406 0.00678189 -0.00061681)
(0.000625939 0.00618611 -0.000386594)
(0.00128681 0.00481303 -0.000121779)
(0.00218145 0.0036771 0.000220042)
(0.00357535 0.00296037 0.000612302)
(0.0050932 0.00279289 0.000265989)
(0.0101538 0.00304044 -0.0069276)
(-0.00486703 0.0113186 -0.00434296)
(-0.00111393 0.00899831 -0.00075228)
(0.000216866 0.00671975 -0.000810054)
(0.00098759 0.0040406 -0.000961671)
(0.00088335 0.00198171 -0.000885453)
(0.000339324 0.00167258 -0.000766302)
(3.15098e-05 0.00289309 -0.000638369)
(0.000236731 0.004385 -0.000551736)
(0.000758514 0.00493792 -0.000524648)
(0.00114578 0.0041917 -0.000540856)
(0.00106976 0.0028712 -0.000533221)
(0.000570476 0.00190934 -0.000483297)
(-6.68068e-05 0.00172384 -0.000446002)
(-0.000551571 0.00223161 -0.00050659)
(-0.000651628 0.00319839 -0.000652661)
(-0.000404477 0.00396111 -0.000689556)
(-0.000124562 0.00421138 -0.000624304)
(0.000121044 0.0040717 -0.000669838)
(9.56593e-05 0.00311577 -0.000603133)
(-0.000411827 0.00241773 -0.000581287)
(-0.00105285 0.00270559 -0.000590959)
(-0.00139814 0.00397673 -0.000645909)
(-0.00115333 0.0054934 -0.000835224)
(-0.000255046 0.0063484 -0.00104992)
(0.00070206 0.00568147 -0.000804132)
(0.00131871 0.00434789 -0.000494593)
(0.00210246 0.003184 -0.000135098)
(0.00341138 0.00241129 0.000228172)
(0.00497957 0.00224663 -9.68366e-05)
(0.0102777 0.00282667 -0.00716451)
(-0.00494946 0.0106684 -0.00423202)
(-0.00107037 0.00809728 -0.00102282)
(0.000276121 0.00595653 -0.00101203)
(0.000956734 0.00353697 -0.00109281)
(0.000789765 0.00162777 -0.00103422)
(0.00020974 0.00128952 -0.000975486)
(-8.61464e-05 0.00237304 -0.000947814)
(0.00021785 0.00376069 -0.000939085)
(0.000874969 0.00432528 -0.000903146)
(0.00134201 0.00372649 -0.000833751)
(0.00125386 0.00257416 -0.000729902)
(0.000681585 0.00170073 -0.000631382)
(-1.97511e-05 0.00151525 -0.000591576)
(-0.00051955 0.00197207 -0.000645155)
(-0.000635687 0.00283631 -0.00075274)
(-0.000423359 0.00354429 -0.000806538)
(-0.000124917 0.00380529 -0.000793162)
(0.000127561 0.00367582 -0.000803313)
(6.9279e-05 0.00283909 -0.000751502)
(-0.000479361 0.00219872 -0.000737376)
(-0.00118442 0.00242802 -0.000795177)
(-0.00153659 0.00356874 -0.000939643)
(-0.00119672 0.00496948 -0.00116069)
(-0.000233966 0.00575097 -0.00129114)
(0.000710563 0.00510109 -0.00106436)
(0.00128916 0.00384253 -0.000745718)
(0.00198738 0.00266528 -0.000388069)
(0.00322244 0.00181739 -5.28817e-05)
(0.00481868 0.00161833 -0.000358434)
(0.0102557 0.00247595 -0.00722961)
(-0.00483272 0.00972763 -0.0039338)
(-0.00101354 0.00709466 -0.00117477)
(0.00028068 0.00509767 -0.00112252)
(0.000862262 0.00291348 -0.00115421)
(0.000665153 0.0011674 -0.00112266)
(0.000104137 0.000817566 -0.00111818)
(-0.000147947 0.00177304 -0.00116178)
(0.0002337 0.00305332 -0.00120135)
(0.000973773 0.00363429 -0.00115419)
(0.00148172 0.00319022 -0.00102355)
(0.00137903 0.00222528 -0.000856656)
(0.000760824 0.0014629 -0.000729361)
(2.63888e-05 0.0012813 -0.000688825)
(-0.000473216 0.00166567 -0.000732073)
(-0.000599197 0.00240946 -0.000805579)
(-0.000418955 0.00305489 -0.000865416)
(-0.000119365 0.00332753 -0.000885567)
(0.000120559 0.00321507 -0.000873214)
(2.58829e-05 0.00250139 -0.000835423)
(-0.000545522 0.00192594 -0.000833446)
(-0.00127204 0.00209747 -0.000926345)
(-0.00160451 0.00308563 -0.00112354)
(-0.00119661 0.00432795 -0.00134648)
(-0.000223707 0.00501466 -0.00140863)
(0.00067741 0.00443959 -0.00120996)
(0.00121579 0.00328478 -0.000902889)
(0.00184167 0.00210737 -0.000561218)
(0.00300688 0.00117196 -0.000257889)
(0.00461368 0.000908787 -0.000550514)
(0.0101194 0.00197658 -0.00716316)
(-0.00459515 0.00854501 -0.00354748)
(-0.000955289 0.00603005 -0.00124905)
(0.000242078 0.00417816 -0.00117683)
(0.000727386 0.00219678 -0.001178)
(0.000526368 0.000608754 -0.0011752)
(2.09365e-05 0.000256125 -0.00121508)
(-0.000167602 0.00109115 -0.00130542)
(0.00027448 0.00226505 -0.00137177)
(0.00105889 0.00286775 -0.00131226)
(0.00157999 0.00258664 -0.0011402)
(0.00146165 0.0018248 -0.000933543)
(0.000815956 0.00118941 -0.000788844)
(6.78851e-05 0.00101482 -0.000748446)
(-0.000422476 0.00131514 -0.000783092)
(-0.000551794 0.00193191 -0.000830364)
(-0.000397642 0.00250988 -0.000889547)
(-0.000108309 0.00279188 -0.000928553)
(0.00010654 0.00270497 -0.000903195)
(-2.48372e-05 0.00211111 -0.000877321)
(-0.000606282 0.00159999 -0.000887586)
(-0.00132679 0.00170879 -0.0010031)
(-0.00162571 0.00252591 -0.0012277)
(-0.00117147 0.00358335 -0.00143871)
(-0.000219102 0.00417104 -0.00144998)
(0.000621875 0.00370355 -0.00127706)
(0.0011137 0.00267353 -0.000991912)
(0.00167144 0.0015074 -0.00067569)
(0.00276602 0.000478482 -0.000409165)
(0.0043699 0.000128137 -0.000697262)
(0.00989344 0.00132912 -0.00700688)
(-0.00431122 0.00717929 -0.00314971)
(-0.000911995 0.00493736 -0.00127289)
(0.000166444 0.00322734 -0.00119776)
(0.000568396 0.0014129 -0.00118472)
(0.000385311 -3.34063e-05 -0.00120932)
(-4.19129e-05 -0.00038699 -0.00128275)
(-0.000156444 0.000333568 -0.00140009)
(0.000332221 0.00140553 -0.00147773)
(0.00113375 0.00203618 -0.00140577)
(0.00164921 0.00192697 -0.00120753)
(0.00151457 0.00137967 -0.000977156)
(0.000853 0.000880157 -0.000821677)
(0.000102562 0.000714416 -0.00078169)
(-0.000373835 0.000926665 -0.000810884)
(-0.000500393 0.00141762 -0.000839744)
(-0.000364759 0.00192619 -0.000894522)
(-9.20804e-05 0.00221445 -0.000941809)
(9.05946e-05 0.00216182 -0.000909812)
(-7.59127e-05 0.00168107 -0.000893735)
(-0.000659446 0.00122812 -0.000914518)
(-0.00135814 0.00126506 -0.0010425)
(-0.00161834 0.00189694 -0.00127783)
(-0.00113429 0.00275653 -0.0014722)
(-0.000216811 0.0032509 -0.00144805)
(0.000557555 0.00290712 -0.00129494)
(0.000995284 0.00201634 -0.00103523)
(0.00148299 0.00087081 -0.000749735)
(0.00250341 -0.000253451 -0.000523798)
(0.00409363 -0.00070897 -0.000815212)
(0.0095949 0.000546224 -0.00679917)
(-0.00404631 0.00568959 -0.00279627)
(-0.000900831 0.00384212 -0.0012642)
(5.68816e-05 0.00226683 -0.00119963)
(0.000396743 0.000584049 -0.00118648)
(0.000250169 -0.000741409 -0.00123606)
(-8.68233e-05 -0.00109822 -0.00133301)
(-0.000123993 -0.000487024 -0.00146238)
(0.000400336 0.000489937 -0.00154039)
(0.00120097 0.0011556 -0.00145664)
(0.00169883 0.00122684 -0.00124308)
(0.00154716 0.000901421 -0.000999967)
(0.000876235 0.000540993 -0.000838298)
(0.000129251 0.000384405 -0.00079877)
(-0.000331263 0.000508832 -0.00082503)
(-0.000449725 0.000878775 -0.000841635)
(-0.000324599 0.00131859 -0.000890245)
(-7.09676e-05 0.00161131 -0.000938968)
(7.663e-05 0.00160091 -0.000904059)
(-0.000122427 0.00122566 -0.000895851)
(-0.000703965 0.000821767 -0.000925049)
(-0.00137369 0.000775885 -0.00105857)
(-0.00159565 0.00121263 -0.00129444)
(-0.00109373 0.00187072 -0.00147203)
(-0.000214718 0.00228173 -0.00142506)
(0.000493793 0.00206873 -0.00128581)
(0.000870331 0.00132665 -0.00105062)
(0.00128234 0.000208767 -0.00079746)
(0.00222362 -0.00101105 -0.000613485)
(0.00379126 -0.00158663 -0.000913833)
(0.00923618 -0.000349228 -0.00657071)
(-0.00385279 0.00413084 -0.00252563)
(-0.000936595 0.00276177 -0.00123467)
(-8.45931e-05 0.00131102 -0.00119103)
(0.000220852 -0.000271962 -0.00118944)
(0.000126728 -0.0014967 -0.00126088)
(-0.000116129 -0.00186008 -0.00137251)
(-7.815e-05 -0.00135302 -0.00150321)
(0.000473178 -0.000462577 -0.00157415)
(0.00126185 0.000245545 -0.00147979)
(0.00173517 0.00050409 -0.00125822)
(0.0015656 0.00040431 -0.00101007)
(0.000888402 0.000182601 -0.000846315)
(0.000147387 3.40414e-05 -0.000807427)
(-0.000297077 7.19106e-05 -0.000831926)
(-0.000402951 0.000325659 -0.000840627)
(-0.000280422 0.000699282 -0.000882593)
(-4.52296e-05 0.000997375 -0.000928668)
(6.75263e-05 0.00103576 -0.00089257)
(-0.000160909 0.000758991 -0.000890324)
(-0.000739235 0.000394507 -0.000926002)
(-0.0013789 0.000255671 -0.00106123)
(-0.00156663 0.000491315 -0.00129196)
(-0.00105531 0.00094945 -0.00145478)
(-0.000211596 0.00128742 -0.00139506)
(0.000436811 0.00120869 -0.00126485)
(0.000746396 0.000621439 -0.0010505)
(0.00107521 -0.000464164 -0.000828306)
(0.00193193 -0.00178012 -0.00068476)
(0.00346889 -0.00248915 -0.000996597)
(0.00882686 -0.00132603 -0.00634111)
(-0.00376644 0.00255384 -0.0023622)
(-0.00102905 0.00170773 -0.00119174)
(-0.00025566 0.000368997 -0.00117639)
(4.74218e-05 -0.00114072 -0.00119544)
(1.94864e-05 -0.00228018 -0.00128442)
(-0.000131557 -0.00265217 -0.00140257)
(-2.51147e-05 -0.00224321 -0.00152698)
(0.000545681 -0.00143031 -0.00158609)
(0.0013159 -0.000672734 -0.00148292)
(0.0017612 -0.000222701 -0.0012585)
(0.00157308 -9.61819e-05 -0.00101126)
(0.000891012 -0.000181096 -0.000849599)
(0.000156785 -0.000323728 -0.000811748)
(-0.0002726 -0.000372743 -0.000834691)
(-0.000362181 -0.000232816 -0.00083888)
(-0.000234497 7.85107e-05 -0.000874543)
(-1.51351e-05 0.000386049 -0.00091542)
(6.51759e-05 0.000477929 -0.000878587)
(-0.00018892 0.000294147 -0.00088017)
(-0.00076451 -3.92694e-05 -0.000920486)
(-0.00137679 -0.000278242 -0.00105559)
(-0.00153653 -0.000246176 -0.00127827)
(-0.0010223 1.56099e-05 -0.00142926)
(-0.000207012 0.000288765 -0.00136543)
(0.000390327 0.000347674 -0.00124065)
(0.000629155 -8.06716e-05 -0.00104193)
(0.000867504 -0.00113164 -0.000846967)
(0.00163469 -0.00254592 -0.000739277)
(0.00313253 -0.00340111 -0.00106188)
(0.00837368 -0.00234725 -0.0061165)
(-0.00380362 0.00100732 -0.00231784)
(-0.00118097 0.000688416 -0.00113943)
(-0.000452641 -0.000552946 -0.0011568)
(-0.000117581 -0.00200928 -0.00120289)
(-6.74945e-05 -0.00307179 -0.0013027)
(-0.00013387 -0.00345184 -0.00141879)
(3.05825e-05 -0.00313402 -0.00153094)
(0.00061304 -0.00239021 -0.00157557)
(0.00136045 -0.00157743 -0.00146639)
(0.00177637 -0.000935031 -0.00124399)
(0.00157002 -0.000584376 -0.00100317)
(0.000884628 -0.000534906 -0.000847803)
(0.000157563 -0.000674239 -0.000811403)
(-0.000258544 -0.000813222 -0.000833058)
(-0.000328799 -0.000788208 -0.00083652)
(-0.000188217 -0.00053449 -0.000866742)
(1.89298e-05 -0.000210521 -0.000900213)
(7.04896e-05 -6.2403e-05 -0.000862613)
(-0.000204772 -0.000156865 -0.000865435)
(-0.000778464 -0.000465173 -0.000908188)
(-0.00136769 -0.000807313 -0.00104173)
(-0.00150712 -0.000978124 -0.00125443)
(-0.000996249 -0.000908888 -0.00139713)
(-0.000201332 -0.000695583 -0.00133771)
(0.000355853 -0.000493982 -0.00121562)
(0.000522767 -0.000760684 -0.00102683)
(0.000665895 -0.00177661 -0.000853512)
(0.00133982 -0.00329314 -0.000773938)
(0.00278845 -0.00430678 -0.00110311)
(0.00787885 -0.00337426 -0.00588823)
(-0.00396059 -0.000460322 -0.00239204)
(-0.00138731 -0.000287823 -0.00107821)
(-0.000669685 -0.0014485 -0.00113003)
(-0.000268154 -0.00286396 -0.00120665)
(-0.000130073 -0.00385002 -0.00130676)
(-0.000122832 -0.00423498 -0.00141051)
(8.58275e-05 -0.00400113 -0.00150482)
(0.000670411 -0.00331897 -0.00153409)
(0.00139047 -0.00244701 -0.00142325)
(0.00177649 -0.00161492 -0.00120937)
(0.00155414 -0.0010453 -0.000981445)
(0.000869003 -0.000864437 -0.000836301)
(0.000150215 -0.00100354 -0.000801524)
(-0.000255051 -0.00123752 -0.000823277)
(-0.000303608 -0.00133163 -0.000831631)
(-0.0001423 -0.00113039 -0.00085763)
(5.63126e-05 -0.000780789 -0.000880763)
(8.33928e-05 -0.000575649 -0.000842639)
(-0.000207357 -0.000582831 -0.00084345)
(-0.000778933 -0.00086943 -0.000885471)
(-0.00134914 -0.00131351 -0.00101453)
(-0.00147693 -0.00168337 -0.00121472)
(-0.000977344 -0.00180299 -0.00135314)
(-0.000195759 -0.00164803 -0.00130799)
(0.00033285 -0.00129671 -0.00118632)
(0.000430093 -0.00140003 -0.00100212)
(0.000478303 -0.0023821 -0.000843425)
(0.00105742 -0.00400591 -0.000780724)
(0.00244315 -0.00518956 -0.00110843)
(0.00733787 -0.00437137 -0.00563324)
(-0.00421466 -0.00180021 -0.00257093)
(-0.00163547 -0.00121053 -0.00100412)
(-0.000898286 -0.00230898 -0.00108993)
(-0.00039776 -0.00368856 -0.00119724)
(-0.000163891 -0.00459187 -0.00128158)
(-9.74313e-05 -0.00497718 -0.00136008)
(0.000138528 -0.00482102 -0.00143048)
(0.000712686 -0.00419423 -0.00144511)
(0.00139845 -0.00326122 -0.0013392)
(0.00175379 -0.00224557 -0.00114379)
(0.0015204 -0.00146564 -0.00093765)
(0.00084306 -0.0011581 -0.000806522)
(0.000135835 -0.00130046 -0.000773193)
(-0.000261401 -0.00163413 -0.000798015)
(-0.000286792 -0.00185291 -0.00081985)
(-9.70415e-05 -0.00169872 -0.000843093)
(9.59152e-05 -0.0013133 -0.000851372)
(0.000102808 -0.0010522 -0.000813897)
(-0.000196105 -0.000973197 -0.000808682)
(-0.00076287 -0.00123962 -0.000845287)
(-0.00131601 -0.00178121 -0.000963796)
(-0.00144131 -0.00234289 -0.00114676)
(-0.000964455 -0.00264659 -0.0012852)
(-0.00019239 -0.00255112 -0.00126692)
(0.000318767 -0.00204205 -0.00114341)
(0.000352764 -0.00198151 -0.00095971)
(0.000314078 -0.00293205 -0.000807427)
(0.000800343 -0.00466794 -0.00074624)
(0.00210354 -0.00603158 -0.00105998)
(0.00673859 -0.00530936 -0.0053163)
(-0.00452634 -0.00296385 -0.00282568)
(-0.00190621 -0.00206637 -0.000907428)
(-0.00112714 -0.00312174 -0.00102522)
(-0.000499143 -0.00446358 -0.00115936)
(-0.000164562 -0.00527395 -0.00120488)
(-5.62278e-05 -0.00565577 -0.00124215)
(0.000187229 -0.00557305 -0.00128194)
(0.00073429 -0.00499634 -0.00128401)
(0.00137451 -0.00400276 -0.00119255)
(0.00169694 -0.00281265 -0.00103066)
(0.00146088 -0.00183505 -0.00085933)
(0.000804813 -0.00140882 -0.00074667)
(0.000116451 -0.00155799 -0.000714321)
(-0.000275478 -0.00199272 -0.000746232)
(-0.000277697 -0.00233992 -0.000793519)
(-5.26353e-05 -0.00222707 -0.000815606)
(0.000135946 -0.00179668 -0.000802468)
(0.000126596 -0.0014824 -0.000768312)
(-0.00017109 -0.00131849 -0.000752321)
(-0.000726547 -0.00156582 -0.000777104)
(-0.0012606 -0.0021992 -0.000874812)
(-0.00139243 -0.00294166 -0.00103199)
(-0.000954938 -0.00342104 -0.00117419)
(-0.000194326 -0.00338707 -0.00119918)
(0.00030885 -0.00271341 -0.0010716)
(0.000291184 -0.00249075 -0.000886356)
(0.000183992 -0.00341272 -0.000731179)
(0.000584612 -0.00526351 -0.000651071)
(0.001778 -0.00681387 -0.000932757)
(0.00606225 -0.0061671 -0.00489288)
(-0.004842 -0.00390694 -0.00311132)
(-0.00217493 -0.00284004 -0.000771202)
(-0.00134227 -0.00386996 -0.00091771)
(-0.000564572 -0.00516684 -0.00106982)
(-0.000128141 -0.00587534 -0.00104579)
(2.30506e-06 -0.00625299 -0.00102314)
(0.000230901 -0.0062422 -0.00102531)
(0.000729083 -0.0057108 -0.00101801)
(0.00130642 -0.00465975 -0.000954351)
(0.00159117 -0.0033064 -0.000847448)
(0.00136464 -0.00214793 -0.000730188)
(0.000751356 -0.00161545 -0.000642844)
(9.55163e-05 -0.00177422 -0.000610617)
(-0.000293047 -0.00230505 -0.000653001)
(-0.000274524 -0.00277866 -0.000740305)
(-9.55929e-06 -0.0027011 -0.000762819)
(0.000173574 -0.00222022 -0.000719939)
(0.000151405 -0.00185734 -0.000693853)
(-0.000133278 -0.00161148 -0.000661883)
(-0.000665946 -0.00184224 -0.000667048)
(-0.00117299 -0.00256257 -0.000729382)
(-0.00131899 -0.00347073 -0.000846518)
(-0.00094421 -0.00411055 -0.000993542)
(-0.000205908 -0.00413792 -0.00108261)
(0.000295563 -0.00329772 -0.00094952)
(0.000244397 -0.00291823 -0.000763727)
(0.000100397 -0.00381509 -0.000595031)
(0.00043009 -0.00577979 -0.000469006)
(0.00147811 -0.00751806 -0.000693106)
(0.00528636 -0.00693158 -0.0043114)
(-0.00509763 -0.00459565 -0.00336779)
(-0.00241319 -0.00351719 -0.000570091)
(-0.0015274 -0.00453421 -0.000739676)
(-0.000586496 -0.00577606 -0.000895009)
(-5.18298e-05 -0.00638228 -0.000763862)
(7.95702e-05 -0.00676065 -0.000661019)
(0.000269031 -0.00682284 -0.000618919)
(0.000690429 -0.00633198 -0.000606142)
(0.00117985 -0.00522902 -0.000588712)
(0.00141857 -0.0037247 -0.000565887)
(0.0012178 -0.00240559 -0.000530586)
(0.000679044 -0.00178379 -0.000480351)
(7.84707e-05 -0.00195296 -0.000446513)
(-0.000307032 -0.00256641 -0.000499209)
(-0.000274034 -0.00315459 -0.000641343)
(3.09968e-05 -0.00310597 -0.000665692)
(0.000204549 -0.00257564 -0.000584332)
(0.000172477 -0.00217037 -0.000573843)
(-8.48849e-05 -0.00184922 -0.000521017)
(-0.000577242 -0.00206917 -0.000498381)
(-0.00104125 -0.00287433 -0.000507159)
(-0.00120598 -0.00392922 -0.000562069)
(-0.000925304 -0.00470463 -0.000708651)
(-0.000233142 -0.00478698 -0.000886505)
(0.000267681 -0.00378794 -0.000749812)
(0.000209828 -0.00326246 -0.000568796)
(7.75561e-05 -0.00413846 -0.000374172)
(0.000361504 -0.00621088 -0.000166369)
(0.00122091 -0.00813053 -0.000297112)
(0.00438736 -0.0075983 -0.00351409)
(-0.00522447 -0.00501347 -0.00352278)
(-0.00259088 -0.00408926 -0.000269265)
(-0.00166443 -0.00509731 -0.0004506)
(-0.000558424 -0.00627465 -0.000587736)
(6.52721e-05 -0.00679495 -0.000308332)
(0.000176739 -0.00718665 -0.00010511)
(0.000301792 -0.00732428 -1.29259e-05)
(0.000611453 -0.00686887 1.07913e-06)
(0.000978867 -0.00572048 -5.27882e-05)
(0.00115885 -0.00407709 -0.000152139)
(0.00100418 -0.00261878 -0.000238048)
(0.000583875 -0.00192712 -0.000244574)
(7.29748e-05 -0.0021045 -0.000205643)
(-0.000307233 -0.00277837 -0.000261157)
(-0.000271433 -0.00345626 -0.000469202)
(6.67758e-05 -0.00343015 -0.000496475)
(0.000222994 -0.00286043 -0.000370034)
(0.000183546 -0.00241979 -0.000386154)
(-2.96302e-05 -0.0020358 -0.000309529)
(-0.000457183 -0.00225508 -0.000252007)
(-0.000852034 -0.00314647 -0.000186439)
(-0.00103511 -0.00432656 -0.000146357)
(-0.000888788 -0.00520293 -0.000276006)
(-0.000283962 -0.00532259 -0.000569158)
(0.000209682 -0.00418641 -0.000438835)
(0.000183123 -0.00353376 -0.000274348)
(0.000131482 -0.00439511 -3.91045e-05)
(0.000408602 -0.00656443 0.00029853)
(0.00103035 -0.0086502 0.000310879)
(0.00334435 -0.00817411 -0.00243618)
(-0.005156 -0.00516603 -0.00349454)
(-0.00267915 -0.00456114 0.000176708)
(-0.00173432 -0.00555464 6.6406e-06)
(-0.000475765 -0.00666255 -8.36239e-05)
(0.000221665 -0.00713775 0.00038257)
(0.000294739 -0.0075645 0.000704207)
(0.000330093 -0.00777972 0.00085173)
(0.000485568 -0.00735398 0.000862536)
(0.000687124 -0.00616414 0.000703965)
(0.000790968 -0.00439066 0.000433173)
(0.000706828 -0.00281095 0.000172589)
(0.000462077 -0.00206666 7.93252e-05)
(8.83104e-05 -0.00224727 0.000129627)
(-0.000280934 -0.00295327 8.99165e-05)
(-0.00026061 -0.00368223 -0.000186079)
(9.43143e-05 -0.0036725 -0.000217)
(0.000221596 -0.00308345 -4.46062e-05)
(0.00017705 -0.00261342 -0.00010228)
(2.72943e-05 -0.00218628 -3.52496e-06)
(-0.000303168 -0.00241931 9.33694e-05)
(-0.000591479 -0.0034015 0.00025641)
(-0.000786448 -0.00468636 0.000437794)
(-0.000823502 -0.00562317 0.000357951)
(-0.000368043 -0.00574635 -7.4495e-05)
(0.000102229 -0.0045102 2.439e-05)
(0.000158324 -0.00375865 0.000150654)
(0.000278685 -0.00461614 0.000443809)
(0.000603928 -0.0068714 0.000975563)
(0.000936678 -0.00910135 0.00119951)
(0.00214383 -0.00868516 -0.0010033)
(-0.00483598 -0.0050869 -0.00319413)
(-0.00265368 -0.00496384 0.000824777)
(-0.00171854 -0.00593299 0.000708662)
(-0.000336389 -0.0069758 0.000701601)
(0.000413557 -0.00747547 0.00138191)
(0.000434495 -0.00796864 0.00183588)
(0.000355497 -0.00826186 0.00204495)
(0.0003073 -0.00785881 0.00204773)
(0.000289825 -0.0066229 0.00174137)
(0.000295723 -0.00471981 0.00123525)
(0.000310855 -0.00302406 0.000729316)
(0.000310983 -0.00223415 0.000507881)
(0.000133856 -0.00241176 0.000579538)
(-0.000214695 -0.00312188 0.000588216)
(-0.000234937 -0.00385242 0.000257112)
(0.000109163 -0.00385372 0.000222035)
(0.000192378 -0.00327388 0.000431323)
(0.000144805 -0.00277663 0.000313247)
(7.96922e-05 -0.00233257 0.000424334)
(-0.000113077 -0.00259684 0.000561431)
(-0.000246751 -0.0036774 0.000848913)
(-0.000441639 -0.00505521 0.0012346)
(-0.000718478 -0.00601534 0.00125796)
(-0.000496018 -0.00608939 0.00067125)
(-7.58237e-05 -0.004801 0.000689734)
(0.000128538 -0.00398674 0.000740835)
(0.00053394 -0.00485947 0.00111159)
(0.000978131 -0.00720035 0.00192232)
(0.000973082 -0.00955321 0.002451)
(0.000783581 -0.00919359 0.000872198)
(-0.00422688 -0.00485121 -0.00252794)
(-0.00249811 -0.00537698 0.00174343)
(-0.00160163 -0.00632283 0.00175141)
(-0.000140684 -0.0073206 0.00187177)
(0.000636013 -0.00794149 0.00277337)
(0.000597361 -0.00854229 0.00336858)
(0.000380148 -0.00891295 0.00364938)
(7.34935e-05 -0.00852339 0.00363852)
(-0.000223443 -0.00721817 0.00313063)
(-0.000340481 -0.00516457 0.00230562)
(-0.000192892 -0.00333037 0.00146322)
(0.000130123 -0.00248058 0.00106115)
(0.000217028 -0.0026502 0.00116876)
(-9.7334e-05 -0.00334682 0.0012737)
(-0.000188767 -0.00402676 0.000919931)
(0.000106639 -0.00403485 0.000879973)
(0.000128092 -0.00349603 0.0011034)
(7.92335e-05 -0.00296622 0.000902485)
(0.000121461 -0.00253363 0.00100435)
(0.000114786 -0.0028482 0.00117864)
(0.000191635 -0.0040411 0.00162497)
(1.16757e-05 -0.00552266 0.00229796)
(-0.000566106 -0.00648741 0.00250092)
(-0.000678022 -0.00644265 0.00176101)
(-0.000343534 -0.0051452 0.0016171)
(8.73804e-05 -0.00430427 0.00153404)
(0.000907676 -0.00522402 0.00200393)
(0.00155374 -0.00768099 0.00320348)
(0.00117025 -0.0101535 0.00416106)