/*--------------------------------*- C++ -*----------------------------------*\
| =========                 |                                                 |
| \\      /  F ield         | OpenFOAM: The Open Source CFD Toolbox           |
|  \\    /   O peration     | Version:  2106                                  |
|   \\  /    A nd           | Website:  www.openfoam.com                      |
|    \\/     M anipulation  |                                                 |
\*---------------------------------------------------------------------------*/
FoamFile
{
    version     2.0;
    format      ascii;
    arch        "LSB;label=32;scalar=64";
    class       volSymmTensorField;
    location    "747";
    object      epsilon;
}
// * * * * * * * * * * * * * * * * * * * * * * * * * * * * * * * * * * * * * //

dimensions      [0 0 0 0 0 0 0];

internalField   nonuniform List<symmTensor> 
9000
(
(-91.3201 -2.46894 16.0584 -147.664 60.1181 481.323)
(-16.5244 0.874728 -26.5349 -180.8 72.3158 495.52)
(-3.27926 -0.0304103 -48.4571 -154.084 58.0552 409.689)
(4.81556 0.266445 -45.7916 -112.926 37.8314 291.199)
(10.6347 0.417376 -17.4702 -73.2733 24.9135 178.918)
(9.60552 0.115844 26.5947 -71.5626 25.6552 175.549)
(0.381529 -0.0554463 48.8473 -104.646 38.8787 273.17)
(-8.92253 -0.0299603 29.2401 -141.605 52.6707 381.049)
(-10.3762 0.10723 -12.4533 -145.075 54.858 391.821)
(-4.47561 0.21526 -41.3142 -116.627 44.4832 310.383)
(2.91818 0.245185 -42.2711 -76.1127 29.5497 195.718)
(6.6428 0.175744 -20.9431 -48.079 19.9912 118.318)
(4.91131 -0.0675891 2.95842 -45.3125 19.0678 113.267)
(1.54953 -0.243599 11.9873 -60.5896 22.7843 157.326)
(0.216089 -0.177029 12.6964 -72.293 27.4487 189.782)
(-1.69971 -0.00288349 13.2035 -86.9591 33.3479 230.466)
(-3.93456 -0.0324924 1.67546 -99.9045 37.746 267.036)
(-2.83986 0.0576343 -13.3553 -92.3314 34.6315 246.189)
(1.36771 0.230993 -18.3411 -78.4351 29.0582 204.358)
(6.79716 0.114537 -5.23949 -63.8583 24.2325 159.229)
(7.88027 -0.148665 27.5422 -72.9037 28.671 181.479)
(0.371737 -0.483916 49.8533 -115.838 43.2015 302.488)
(-9.50264 -0.683295 31.8569 -163.76 57.0511 439.581)
(-9.76505 0.131862 -15.5661 -176.389 57.8961 474.453)
(-0.176355 0.785979 -35.7306 -133.422 53.7956 350.527)
(7.5827 0.387289 -16.8169 -105.375 44.4039 268.232)
(8.57417 0.106436 15.0363 -93.8805 39.8289 236.307)
(3.7853 -0.294714 42.0104 -103.164 39.6393 265.57)
(-1.26082 -1.55241 44.3394 -98.2836 35.7735 259.9)
(-17.8229 0.0298189 20.8458 -32.8729 15.9703 102.75)
(-57.2557 -5.2098 9.73914 -78.5615 104.706 281.197)
(-11.9158 1.62556 -21.8583 -98.294 123.863 306.228)
(-1.78261 1.85873 -33.2846 -84.5807 96.8827 251.866)
(3.90121 3.08552 -29.1543 -63.121 58.6231 182.444)
(8.00052 2.34233 -9.67234 -42.8566 38.1795 114.273)
(7.1931 -0.658713 20.5634 -42.1105 40.5078 112.862)
(0.184914 -2.32186 35.8028 -59.9692 63.4789 175.725)
(-6.89496 -1.32269 21.5427 -79.9769 86.5153 245.685)
(-7.96467 1.09823 -8.12735 -81.7106 90.986 251.65)
(-3.48442 2.76993 -28.5748 -66.0623 73.802 198.738)
(2.10413 2.87859 -29.7659 -43.5821 49.1398 124.203)
(4.9501 1.51409 -15.3244 -27.7047 34.2561 72.9642)
(3.61327 -0.538678 1.13247 -25.8551 33.0457 69.3362)
(1.07042 -1.45864 6.87966 -33.9783 37.5771 98.2727)
(0.239086 -1.25043 7.12896 -39.9335 45.8781 115.844)
(-1.11682 -0.888369 8.37577 -48.0131 55.9983 141.291)
(-2.85574 -0.246314 0.839169 -55.3628 62.7158 166.842)
(-2.08627 0.794764 -9.07613 -50.7077 57.7898 151.388)
(0.925828 1.3964 -12.4051 -43.9937 47.603 128.187)
(4.98897 0.420094 -4.30578 -36.8434 39.677 100.651)
(5.97033 -2.07077 18.1494 -42.3414 47.7424 114.894)
(0.306361 -4.20843 34.1171 -66.254 70.5901 194.447)
(-7.31613 -3.71258 21.3464 -92.2635 90.5542 284.038)
(-7.31049 1.44722 -12.5161 -97.5934 89.2662 302.844)
(0.432022 4.36505 -24.9277 -74.9497 92.0357 217.256)
(6.60594 2.19755 -8.85468 -59.996 76.5869 165.947)
(7.69906 0.236649 17.1661 -54.2857 68.616 147.963)
(4.33862 -0.978196 42.262 -59.69 65.1459 171.904)
(1.13611 -1.42889 50.0979 -55.4064 57.7205 167.079)
(-2.20253 2.16927 28.1114 -17.0684 29.5043 27.5481)
(-34.4967 -6.0794 2.9913 -29.6511 117.243 150.499)
(-7.30639 1.14153 -17.828 -43.5706 133.251 192.247)
(-0.510587 1.66809 -22.2617 -37.581 103.39 155.617)
(3.20355 3.20984 -16.2835 -28.4494 60.4391 112.42)
(5.64497 2.63166 -3.03259 -21.3556 37.6894 72.964)
(4.94653 -0.70313 16.2713 -21.7801 40.2321 74.3532)
(-0.0231772 -2.63935 25.8729 -30.138 64.9085 117.137)
(-5.04732 -1.45342 15.6999 -39.274 89.2769 164.246)
(-5.75186 1.39321 -4.60712 -39.8506 94.4908 167.578)
(-2.55439 3.35332 -18.4772 -32.4253 76.3994 131.852)
(1.38254 3.56792 -19.6737 -21.6769 50.7463 81.6131)
(3.3608 1.96956 -10.5124 -14.0648 35.7948 47.2336)
(2.33962 -0.557772 -0.222028 -13.0816 34.7485 44.9712)
(0.609908 -1.63491 2.62387 -16.1798 39.1824 62.9056)
(0.310789 -1.3476 2.68792 -17.9664 48.8209 70.6986)
(-0.56725 -1.04632 4.7639 -21.647 59.6254 86.9657)
(-1.88725 -0.281786 0.169389 -25.5284 66.0353 106.085)
(-1.37519 0.844113 -5.81273 -22.6478 61.6189 93.5631)
(0.540089 1.42365 -7.68269 -20.7416 49.5112 81.9375)
(3.30013 0.40561 -3.45602 -18.3493 40.6216 65.4787)
(4.12363 -2.52333 10.7874 -21.5476 49.0364 75.6629)
(0.119583 -5.16157 21.2028 -32.8558 72.3401 129.103)
(-5.19174 -4.45801 11.9743 -43.9213 92.5043 186.61)
(-4.76204 2.00879 -9.71886 -43.5406 92.2331 191.592)
(1.01046 5.32967 -15.249 -36.0448 97.0906 139.197)
(5.55682 2.48053 -2.29925 -30.0592 80.4178 108.104)
(6.7347 0.0378289 18.8102 -28.3578 71.2229 99.0405)
(4.50317 -1.42805 41.685 -31.0622 66.0863 117.61)
(3.37501 -1.36824 52.4324 -27.4301 58.8608 110.662)
(8.73359 2.77777 33.545 -5.0501 34.9332 -23.367)
(-15.5756 -6.14186 -3.83188 -6.86056 120.421 61.2081)
(-3.09373 0.0554417 -14.9976 -19.2186 129.47 118.045)
(0.613537 0.790299 -13.8362 -16.2151 100.106 93.0747)
(2.66606 2.21951 -6.15281 -11.5489 57.7538 64.7986)
(3.64096 2.03458 2.36268 -10.3426 34.0115 43.9855)
(2.99333 -0.605592 12.9249 -11.6841 35.8494 47.8141)
(-0.206553 -2.23428 17.9237 -16.1772 59.2725 77.9293)
(-3.42812 -1.13086 11.0763 -20.5121 82.4007 109.959)
(-3.80978 1.39989 -1.60097 -20.6374 87.8073 111.799)
(-1.72021 3.12261 -10.0861 -16.7714 70.8179 87.2615)
(0.770192 3.39009 -11.1453 -11.3302 46.9478 53.2265)
(1.94987 1.95966 -6.24886 -7.84089 33.1917 30.7421)
(1.18308 -0.35923 -1.1311 -7.47243 32.184 29.6777)
(0.19426 -1.25525 -0.796123 -7.98181 36.7174 39.6235)
(0.381984 -0.977181 -0.847058 -7.88401 47.1044 41.1106)
(-0.093948 -0.914738 1.90559 -9.55041 57.5132 51.3488)
(-1.06225 -0.246402 -0.354987 -11.7795 62.8108 65.957)
(-0.770062 0.607656 -3.26442 -9.87298 59.5164 55.8362)
(0.209808 0.947065 -4.01068 -9.7961 46.5189 51.1281)
(1.82849 0.219935 -2.82282 -9.36313 37.4219 41.8279)
(2.4653 -2.3478 4.74281 -11.5685 45.0423 49.5886)
(-0.0933969 -4.77688 10.3891 -16.91 66.5846 85.1477)
(-3.25697 -3.92469 3.99875 -20.6383 85.8041 120.007)
(-2.41909 2.07201 -7.28634 -17.487 88.339 115.669)
(1.49926 4.75184 -7.16491 -18.431 91.4134 88.5655)
(4.5711 2.00265 3.06295 -16.6445 74.8926 71.3092)
(5.80222 -0.290633 20.0728 -16.7692 65.0317 68.1985)
(4.51592 -1.62001 40.7443 -17.8537 59.2614 82.271)
(5.33817 -1.09594 53.4378 -14.6877 53.634 72.873)
(17.7049 2.72926 37.9238 -0.344281 36.8656 -59.2594)
(-0.533914 -5.75479 -10.1042 2.02347 123.002 0.294322)
(0.514078 -1.09307 -13.3319 -9.58731 124.332 67.9705)
(1.57351 -0.27522 -7.51972 -7.67032 96.0716 51.484)
(2.2339 0.779055 1.38556 -4.1662 55.8762 32.3292)
(2.02317 1.00213 6.29395 -4.89734 31.2615 22.9622)
(1.4122 -0.521382 10.1843 -6.69003 31.9336 28.25)
(-0.335192 -1.54562 11.6192 -9.74 53.4819 49.6649)
(-2.06019 -0.617904 7.50513 -12.041 75.1837 71.128)
(-2.17859 1.28161 0.966979 -12.0259 80.6305 72.1341)
(-1.0097 2.52698 -3.18315 -9.56001 65.0744 55.3414)
(0.26719 2.76418 -4.06195 -6.44965 43.1306 32.8281)
(0.764996 1.67099 -2.58524 -4.96652 30.2167 18.9783)
(0.210262 -0.0793131 -1.62315 -4.94846 29.0515 18.7751)
(-0.1581 -0.612247 -3.28958 -4.34361 34.1083 23.2812)
(0.42067 -0.401434 -3.47462 -3.70076 45.1345 21.1372)
(0.277215 -0.64562 -0.331291 -4.49913 55.0903 27.2452)
(-0.398191 -0.18695 -0.746962 -5.80684 59.3979 38.1873)
(-0.302201 0.260835 -1.35478 -4.6056 56.9976 30.44)
(-0.0690393 0.295442 -1.3683 -4.80675 43.6106 29.4639)
(0.624212 -0.0446958 -2.48477 -4.98331 34.4561 24.7414)
(1.08238 -1.88674 -0.178073 -6.72383 41.0649 30.7282)
(-0.259465 -3.70066 1.66591 -9.33725 60.9978 53.5083)
(-1.61355 -2.74639 -2.24746 -9.79918 79.9159 72.5116)
(-0.486124 1.80546 -5.36229 -6.17678 85.5398 63.606)
(1.87698 3.39012 -1.0364 -10.6544 84.8404 53.2711)
(3.74469 1.16256 7.18063 -10.6065 68.4604 45.4725)
(4.98684 -0.669466 20.9245 -11.4155 57.9526 46.3182)
(4.48453 -1.65286 39.6563 -11.7343 52.0892 57.1026)
(6.9651 -0.820798 53.8294 -9.15549 48.1777 45.9719)
(24.9055 2.37392 41.3987 0.810535 37.4879 -85.2265)
(10.6467 -5.07988 -15.2823 3.57123 125.116 -39.3218)
(3.39769 -2.03664 -12.4845 -7.18841 118.876 34.3006)
(2.32213 -1.27621 -3.02568 -5.55734 91.8496 24.1795)
(1.86863 -0.696489 6.47659 -2.02259 54.4416 10.9667)
(0.794697 -0.118315 8.72807 -2.67436 29.4311 7.92741)
(0.230582 -0.476584 7.87709 -4.46781 28.8638 13.5756)
(-0.391483 -0.797512 6.79068 -7.02488 48.4244 28.6203)
(-0.946158 -0.0597818 4.90107 -8.56597 68.8509 42.5489)
(-0.87034 1.12859 3.1356 -8.52129 74.2814 43.1134)
(-0.44045 1.82066 2.33037 -6.49208 60.2424 31.9179)
(-0.134654 1.95647 1.59056 -4.29512 40.0052 17.767)
(-0.174627 1.25078 0.419424 -3.63132 27.5484 10.0177)
(-0.547849 0.191993 -1.75429 -3.7488 26.1676 10.3233)
(-0.43771 0.0695107 -4.86874 -2.9445 31.8352 11.5364)
(0.415452 0.198635 -5.2328 -2.51479 43.2273 7.78854)
(0.538553 -0.324242 -2.00195 -3.01682 52.7833 11.0798)
(0.102485 -0.123841 -1.02345 -3.72682 56.4261 18.8907)
(0.0236322 -0.0884747 -0.0234733 -3.05648 54.5333 13.4029)
(-0.302793 -0.330682 0.327128 -2.83755 41.2988 14.0909)
(-0.303794 -0.319439 -2.46596 -2.99512 32.2178 12.1282)
(0.0166482 -1.33799 -4.07701 -4.46144 37.8156 16.5634)
(-0.341937 -2.37641 -4.97391 -5.99309 56.4664 30.1881)
(-0.314581 -1.41173 -6.70913 -5.45633 75.4625 38.6592)
(0.955061 1.3882 -3.99116 -2.7195 83.3887 28.8507)
(2.14246 1.84364 3.14364 -7.56366 78.9209 27.9926)
(3.11122 0.228416 10.0628 -7.95779 62.6547 26.3919)
(4.32585 -1.06377 21.3322 -8.86938 51.5749 29.7789)
(4.44637 -1.64812 38.4818 -9.02312 45.7369 38.4261)
(8.24477 -0.644545 53.7923 -7.16679 43.157 26.4575)
(30.4949 1.90242 44.0052 0.38802 37.2493 -104.022)
(18.2881 -4.24664 -19.0325 1.32155 125.393 -62.6458)
(5.51394 -2.68628 -12.0441 -8.11788 112.184 12.1405)
(2.82938 -2.08242 -0.0346731 -6.44039 86.5383 6.76827)
(1.54749 -1.948 9.46205 -2.61105 52.2887 -2.35968)
(-0.0760112 -1.09626 9.83998 -2.37259 27.6952 -2.43576)
(-0.573177 -0.45287 5.90711 -3.86126 26.0737 2.67641)
(-0.372647 -0.112119 3.2526 -6.23475 43.6303 12.8568)
(-0.0695614 0.456898 3.14966 -7.59393 62.8046 21.4566)
(0.130981 0.988045 4.94933 -7.53436 68.2076 21.8132)
(-0.0144449 1.15303 6.59607 -5.55344 55.788 14.8002)
(-0.447933 1.15298 5.90837 -3.57375 37.1937 6.67679)
(-0.878047 0.812093 2.7792 -3.04295 25.1359 3.00513)
(-1.0955 0.403084 -1.60254 -3.17035 23.5749 3.57044)
(-0.645132 0.64234 -5.66248 -2.67621 29.6127 3.12119)
(0.370996 0.709145 -6.23973 -2.81045 40.9249 -0.852608)
(0.698416 -0.00595462 -3.16586 -3.29895 50.0536 0.580023)
(0.451973 -0.0629984 -1.20345 -3.59988 53.3231 5.75634)
(0.221518 -0.377417 0.818966 -3.27579 51.6436 2.22393)
(-0.498778 -0.826111 1.23303 -2.4502 39.1102 3.38808)
(-0.97763 -0.553281 -2.73779 -2.32887 30.303 2.90183)
(-0.736609 -0.813942 -7.07353 -3.57834 34.9648 5.84555)
(-0.337831 -1.10727 -9.71168 -4.87157 52.3861 13.033)
(0.642113 -0.233687 -9.59332 -4.55396 71.2639 15.0682)
(1.92494 0.963875 -3.11078 -3.17517 80.3317 6.51772)
(2.30357 0.483166 5.65947 -6.78651 73.2452 9.98196)
(2.65451 -0.633493 11.8263 -6.96674 57.2742 12.1571)
(3.81658 -1.45434 21.2945 -7.72829 45.7949 17.0937)
(4.4088 -1.68975 37.2008 -8.0673 39.8283 24.4766)
(9.1993 -0.580992 53.3456 -6.97519 38.0409 12.3787)
(34.6432 1.42017 45.7722 -0.757849 36.1824 -117.14)
(22.9103 -3.37554 -21.2684 -2.72166 122.966 -73.7404)
(6.89322 -3.05068 -11.6756 -10.251 103.849 -2.03825)
(3.09672 -2.65048 1.79297 -8.41732 79.7345 -3.96054)
(1.25916 -2.85994 10.7963 -4.40196 48.8115 -10.1533)
(-0.643998 -1.82168 9.91797 -3.17494 25.4324 -9.23494)
(-1.0533 -0.426056 4.22671 -4.22852 23.0555 -5.2216)
(-0.288061 0.452858 0.796675 -6.48065 38.6564 1.17717)
(0.598095 0.887533 2.10997 -7.8901 56.5069 6.07363)
(0.860698 0.879877 6.45581 -7.79765 61.9092 6.37568)
(0.280777 0.601572 9.79434 -5.73989 51.1992 2.55341)
(-0.686286 0.469888 9.07093 -3.63656 34.332 -1.31991)
(-1.37473 0.426199 4.56691 -2.87623 22.8593 -2.43021)
(-1.46089 0.53164 -1.25662 -2.96181 21.1745 -1.74787)
(-0.788041 1.03604 -5.86054 -2.98145 27.1909 -2.78737)
(0.300793 1.07667 -6.65674 -3.75117 37.9493 -6.20209)
(0.775097 0.275652 -3.89521 -4.35123 46.5671 -5.93187)
(0.672005 -0.00375913 -1.30367 -4.38583 49.6711 -2.87481)
(0.315085 -0.579308 1.27776 -4.22791 48.0557 -4.86946)
(-0.663001 -1.15549 1.53762 -2.88232 36.6486 -3.79017)
(-1.43597 -0.715031 -3.23029 -2.42132 28.3352 -3.6585)
(-1.21637 -0.370001 -9.30091 -3.48462 32.1816 -2.1359)
(-0.265378 -0.0664471 -12.8561 -4.94348 48.2346 0.649509)
(1.29831 0.643855 -11.2354 -5.38761 66.46 -0.8238)
(2.50183 0.614627 -2.60404 -5.25921 75.6375 -7.22953)
(2.37182 -0.531838 6.90415 -7.17788 67.358 -2.48298)
(2.33326 -1.33989 12.6519 -6.86573 51.9808 1.73762)
(3.43282 -1.82947 20.8375 -7.40219 40.2825 7.53284)
(4.36763 -1.81524 35.7653 -8.06678 33.9142 14.1805)
(9.86761 -0.612722 52.4638 -7.68897 32.3846 2.38828)
(37.5197 0.984779 46.7281 -2.32992 34.2255 -125.447)
(25.1232 -2.56154 -22.1078 -7.38034 117.55 -76.0463)
(7.62584 -3.18419 -11.1734 -12.4736 94.0402 -10.8096)
(3.15228 -2.99852 2.76675 -10.4795 71.5593 -10.3357)
(0.999726 -3.42876 10.9337 -6.50436 43.9234 -14.3495)
(-0.9724 -2.27798 9.26949 -4.5401 22.3113 -13.4279)
(-1.27776 -0.382928 2.81345 -5.17074 19.4783 -10.7498)
(-0.153889 0.880918 -0.786448 -7.29405 33.2278 -7.27232)
(1.09051 1.21772 1.63584 -8.80748 49.6795 -4.89628)
(1.36358 0.810571 7.70317 -8.66269 55.1278 -4.53342)
(0.466867 0.197931 12.1181 -6.50299 46.1757 -5.92008)
(-0.86296 -0.0373237 11.2988 -4.13197 31.1987 -6.88159)
(-1.70485 0.126553 5.88227 -3.00252 20.5895 -6.46775)
(-1.68307 0.576916 -0.803765 -3.0316 18.8298 -5.74999)
(-0.877232 1.24096 -5.65936 -3.56134 24.4395 -6.79611)
(0.220641 1.29269 -6.64938 -4.86935 34.2537 -9.33405)
(0.7906 0.503521 -4.26803 -5.61629 42.2654 -9.73492)
(0.788282 0.0561411 -1.33645 -5.50263 45.329 -8.28062)
(0.330331 -0.691988 1.45635 -5.36759 43.7513 -9.16737)
(-0.799307 -1.32675 1.42241 -3.69239 33.7084 -8.35421)
(-1.72277 -0.79637 -3.85386 -2.94597 26.0784 -8.11647)
(-1.47947 -0.0284774 -10.8926 -3.87474 29.2297 -7.85177)
(-0.150723 0.678461 -14.7617 -5.6543 43.7125 -7.97571)
(1.71464 1.19835 -11.9865 -6.97049 60.6877 -11.0632)
(2.78309 0.3677 -2.348 -7.7319 69.2761 -15.2499)
(2.36064 -1.18305 7.26242 -8.13767 60.9938 -10.675)
(2.1006 -1.86428 12.7395 -7.27873 46.5282 -5.57321)
(3.139 -2.18019 20.0028 -7.58862 34.7545 0.579703)
(4.31568 -2.02642 34.1249 -8.57232 27.7086 6.71485)
(10.2994 -0.717921 51.1181 -8.8092 25.9765 -4.58346)
(39.3027 0.626104 46.9308 -4.23365 31.2304 -129.606)
(25.551 -1.86364 -21.8079 -11.9322 109.238 -72.5088)
(7.83837 -3.15743 -10.468 -14.2774 83.1896 -15.9962)
(3.04065 -3.18093 3.13166 -12.1656 62.3791 -13.9703)
(0.770467 -3.71655 10.261 -8.45338 37.8043 -16.3488)
(-1.12049 -2.50382 8.16609 -6.1073 18.2067 -15.826)
(-1.31387 -0.322998 1.6516 -6.41258 15.1496 -14.4684)
(0.0121639 1.18041 -1.69057 -8.40037 27.1842 -13.1829)
(1.44167 1.45281 1.5919 -9.98757 42.2073 -12.4729)
(1.68624 0.781566 8.73995 -9.77717 47.7529 -11.961)
(0.568336 -0.0535628 13.7577 -7.51109 40.5792 -11.536)
(-0.990641 -0.359564 12.8123 -4.84442 27.6688 -10.5577)
(-1.91042 -0.0803742 6.82689 -3.34829 18.1866 -9.2664)
(-1.8017 0.552989 -0.3178 -3.31904 16.3973 -8.56508)
(-0.923904 1.28462 -5.22874 -4.24452 21.308 -9.38758)
(0.144287 1.37579 -6.3638 -5.91695 29.9226 -11.044)
(0.766155 0.672444 -4.36111 -6.79672 37.2485 -11.7832)
(0.82638 0.118133 -1.31029 -6.62882 40.3281 -11.4486)
(0.291295 -0.726467 1.44606 -6.42472 38.8395 -11.6015)
(-0.910384 -1.36949 1.04467 -4.6078 30.2302 -11.0576)
(-1.88055 -0.80966 -4.52377 -3.68843 23.3988 -10.9586)
(-1.58584 0.205545 -11.9758 -4.56091 25.9295 -11.698)
(-0.0184499 1.13222 -15.7673 -6.68326 38.6537 -13.6582)
(1.95393 1.47439 -12.1513 -8.7409 53.8924 -17.2678)
(2.86093 0.216227 -2.24138 -10.0031 61.5292 -19.5584)
(2.28469 -1.52377 7.05617 -9.3141 54.0284 -15.6477)
(1.91523 -2.21282 12.2798 -7.97331 40.7466 -10.3857)
(2.89993 -2.49683 18.8379 -8.07472 29.0068 -4.25509)
(4.24694 -2.30209 32.2399 -9.29497 21.0813 1.37707)
(10.5499 -0.878169 49.3001 -10.0338 18.7865 -9.4281)
(40.1883 0.346346 46.4867 -6.37569 27.0037 -130.342)
(24.7767 -1.30997 -20.7024 -15.9253 98.3798 -65.6067)
(7.6701 -3.04093 -9.61238 -15.5043 71.7669 -18.8454)
(2.8137 -3.26355 3.04975 -13.3378 52.598 -15.9278)
(0.57671 -3.80776 9.06987 -10.0514 30.7239 -17.1108)
(-1.13719 -2.55967 6.81935 -7.64261 13.1291 -17.0903)
(-1.21965 -0.253787 0.724441 -7.75049 9.98743 -16.8831)
(0.194345 1.37136 -2.08018 -9.61421 20.4465 -17.1572)
(1.68258 1.6083 1.86337 -11.2173 34.0627 -17.4963)
(1.87204 0.79237 9.61308 -10.9314 39.7567 -16.7772)
(0.607883 -0.164324 14.888 -8.54885 34.384 -15.072)
(-1.08135 -0.516281 13.8057 -5.62015 23.6882 -12.8356)
(-2.02896 -0.204095 7.49113 -3.83488 15.5319 -11.0356)
(-1.85106 0.480711 0.148179 -3.75327 13.7594 -10.3788)
(-0.938378 1.21015 -4.69773 -4.92696 17.7937 -10.9578)
(0.0813912 1.35651 -5.91649 -6.78295 25.0918 -11.8934)
(0.719747 0.784987 -4.24423 -7.75812 31.6802 -12.7572)
(0.80927 0.182417 -1.23061 -7.60057 34.7807 -13.1266)
(0.217872 -0.698434 1.32178 -7.28139 33.4697 -12.8365)
(-0.999121 -1.31978 0.528208 -5.4599 26.2507 -12.5118)
(-1.94689 -0.778896 -5.17679 -4.49048 20.2428 -12.6228)
(-1.58848 0.335873 -12.6685 -5.3942 22.1624 -14.0714)
(0.113151 1.33866 -16.1597 -7.8212 32.9773 -17.1096)
(2.0712 1.54145 -11.9642 -10.396 46.1692 -20.6925)
(2.81103 0.13947 -2.21324 -11.8495 52.7452 -21.5325)
(2.15924 -1.62999 6.52824 -10.4816 46.4466 -18.3108)
(1.74638 -2.40714 11.4413 -8.76755 34.5433 -13.2899)
(2.68663 -2.76941 17.3962 -8.68412 22.931 -7.46408)
(4.15803 -2.61051 30.0972 -10.0418 14.017 -2.42805)
(10.6688 -1.07946 47.0336 -11.1764 10.9025 -12.8587)
(40.3804 0.121368 45.5161 -8.60122 21.418 -128.495)
(23.3077 -0.908006 -19.1496 -19.1125 85.4922 -57.3194)
(7.25584 -2.89434 -8.74682 -16.1798 60.1679 -20.1906)
(2.52401 -3.30333 2.60922 -14.0275 42.5546 -16.884)
(0.426435 -3.77905 7.56438 -11.2543 22.9496 -17.2603)
(-1.05967 -2.5049 5.37997 -9.00607 7.17151 -17.7251)
(-1.04095 -0.185891 0.010575 -9.03417 3.9974 -18.429)
(0.380315 1.47483 -2.0907 -10.796 13.0044 -19.7268)
(1.83973 1.70191 2.35683 -12.3584 25.2783 -20.6703)
(1.95827 0.841123 10.3662 -11.9859 31.1748 -19.7186)
(0.604141 -0.154135 15.6592 -9.4744 27.6433 -17.1703)
(-1.14606 -0.539655 14.4374 -6.34211 19.2671 -14.1442)
(-2.09064 -0.261833 7.94879 -4.37059 12.5577 -12.0295)
(-1.85765 0.379945 0.56105 -4.25163 10.8423 -11.4204)
(-0.929518 1.0605 -4.15456 -5.54254 13.9251 -11.8317)
(0.0372504 1.26657 -5.39318 -7.43887 19.9004 -12.2562)
(0.665226 0.848209 -3.97783 -8.46522 25.7301 -13.1162)
(0.756274 0.248638 -1.10124 -8.34814 28.8272 -13.8665)
(0.125208 -0.622944 1.14282 -7.89939 27.7922 -13.3415)
(-1.06923 -1.21047 -0.0366638 -6.15239 21.8642 -13.1872)
(-1.95294 -0.728949 -5.77405 -5.23362 16.6255 -13.4926)
(-1.52914 0.371577 -13.0762 -6.24309 17.8821 -15.3698)
(0.232981 1.35405 -16.1637 -8.91514 26.6766 -18.9652)
(2.1099 1.46754 -11.5914 -11.7856 37.6793 -22.2947)
(2.69002 0.116009 -2.21808 -13.2282 43.2401 -22.1074)
(1.99921 -1.57259 5.84966 -11.4936 38.3203 -19.4321)
(1.57434 -2.474 10.3644 -9.5133 27.9127 -14.8437)
(2.47848 -2.99132 15.7337 -9.27417 16.5103 -9.50897)
(4.04769 -2.92242 27.7099 -10.6906 6.57337 -5.1774)
(10.6911 -1.31221 44.377 -12.1332 2.47208 -15.3925)
(40.0711 -0.0829395 44.1346 -10.7277 14.4557 -124.941)
(21.5591 -0.652044 -17.4925 -21.4157 71.1383 -49.1185)
(6.7165 -2.75975 -8.0561 -16.4094 48.677 -20.5812)
(2.22059 -3.33783 1.84746 -14.335 32.4893 -17.2604)
(0.328299 -3.68547 5.88249 -12.0955 14.705 -17.1797)
(-0.915463 -2.38567 3.94913 -10.1262 0.467728 -18.0802)
(-0.812631 -0.128869 -0.516672 -10.1576 -2.7516 -19.4498)
(0.5612 1.50792 -1.83403 -11.8363 4.90498 -21.3415)
(1.93529 1.74892 2.9971 -13.3133 15.9346 -22.5731)
(1.97549 0.923892 11.0373 -12.8411 22.0952 -21.3922)
(0.571222 -0.0467616 16.1931 -10.1986 20.4628 -18.3337)
(-1.19432 -0.464421 14.8288 -6.92537 14.4687 -14.8361)
(-2.11801 -0.272892 8.25525 -4.86312 9.25533 -12.5094)
(-1.84025 0.265004 0.902543 -4.72808 7.6198 -11.9342)
(-0.904432 0.86945 -3.65373 -6.0473 9.75142 -12.2691)
(0.0136133 1.1324 -4.85289 -7.89853 14.4664 -12.3675)
(0.612469 0.871539 -3.61237 -8.93465 19.5435 -13.1544)
(0.68303 0.316752 -0.925345 -8.85428 22.6078 -14.0631)
(0.0242516 -0.512193 0.955617 -8.28041 21.9432 -13.4389)
(-1.12506 -1.06623 -0.587184 -6.64085 17.1909 -13.4198)
(-1.92334 -0.678325 -6.29641 -5.83668 12.6151 -13.8761)
(-1.43834 0.325748 -13.2892 -6.99682 13.1128 -15.9579)
(0.335776 1.23133 -15.9473 -9.84961 19.8117 -19.7715)
(2.10229 1.307 -11.1451 -12.8447 28.608 -22.787)
(2.53777 0.12938 -2.22735 -14.1698 33.2729 -21.9175)
(1.81814 -1.40623 5.13645 -12.2611 29.774 -19.6216)
(1.38815 -2.43987 9.16105 -10.1016 20.9264 -15.5273)
(2.2622 -3.16147 13.905 -9.73973 9.79676 -10.7796)
(3.91597 -3.21885 25.1083 -11.1715 -1.15634 -7.2248)
(10.6372 -1.57012 41.4072 -12.8607 -6.3562 -17.3584)
(39.4255 -0.291122 42.4477 -12.5876 6.20642 -120.479)
(19.8509 -0.525828 -16.0343 -22.8634 55.8555 -42.0282)
(6.15478 -2.65932 -7.73283 -16.3169 37.4669 -20.3794)
(1.94636 -3.38495 0.775344 -14.3724 22.5471 -17.315)
(0.289931 -3.55947 4.11923 -12.6365 6.15742 -17.0817)
(-0.725349 -2.23139 2.59402 -10.9747 -6.83682 -18.3683)
(-0.561243 -0.0875229 -0.887188 -11.0482 -10.1495 -20.1866)
(0.73074 1.48472 -1.4038 -12.6494 -3.75828 -22.3519)
(1.98745 1.76056 3.7231 -14.0108 6.1476 -23.6497)
(1.94774 1.03304 11.6555 -13.4298 12.6479 -22.263)
(0.519289 0.131705 16.5821 -10.6716 12.9772 -18.9243)
(-1.23389 -0.322995 15.066 -7.31518 9.39317 -15.1727)
(-2.12687 -0.255005 8.44778 -5.23167 5.67145 -12.7073)
(-1.81125 0.143976 1.1631 -5.10281 4.11793 -12.1513)
(-0.868464 0.658619 -3.22585 -6.41066 5.33762 -12.4675)
(0.00999605 0.972724 -4.33469 -8.18967 8.87949 -12.3681)
(0.568135 0.865664 -3.18829 -9.20181 13.2322 -13.0516)
(0.601843 0.387435 -0.705716 -9.12804 16.2498 -13.9859)
(-0.0771897 -0.375742 0.796438 -8.44543 16.0398 -13.338)
(-1.17089 -0.903096 -1.07965 -6.91562 12.3545 -13.4283)
(-1.8769 -0.636544 -6.73648 -6.25212 8.31263 -13.9945)
(-1.33752 0.215293 -13.3804 -7.57039 7.93509 -16.1345)
(0.419941 1.01504 -15.6314 -10.5422 12.4965 -19.9617)
(2.07139 1.09799 -10.6973 -13.5531 19.1398 -22.6741)
(2.38129 0.16807 -2.22312 -14.7261 23.0484 -21.3856)
(1.62757 -1.1691 4.4676 -12.7382 20.9568 -19.3335)
(1.18281 -2.3283 7.91825 -10.4617 13.7045 -15.7108)
(2.02994 -3.28245 11.9582 -10.0123 2.88824 -11.5719)
(3.76339 -3.48961 22.3285 -11.45 -9.06889 -8.8079)
(10.5188 -1.84644 38.2088 -13.3513 -15.463 -18.9356)
(38.5722 -0.512143 40.5532 -14.0419 -3.14532 -115.757)
(18.4139 -0.501955 -15.018 -23.5181 40.1186 -36.7277)
(5.6523 -2.59567 -7.94498 -16.008 26.6183 -19.8266)
(1.73617 -3.44733 -0.605495 -14.2337 12.7955 -17.1993)
(0.316982 -3.41574 2.34263 -12.9358 -2.57796 -17.0648)
(-0.505472 -2.05615 1.36079 -11.5408 -14.5982 -18.6895)
(-0.307317 -0.0599974 -1.12826 -11.6546 -18.0579 -20.7765)
(0.88396 1.41893 -0.875661 -13.1714 -12.8515 -22.9935)
(2.01 1.74397 4.48396 -14.4018 -3.94038 -24.203)
(1.89299 1.15598 12.2365 -13.7125 2.98558 -22.6421)
(0.455632 0.352989 16.8874 -10.8715 5.33152 -19.1715)
(-1.27015 -0.143918 15.2043 -7.48202 4.16318 -15.3215)
(-2.12732 -0.222289 8.54861 -5.41566 1.90063 -12.7972)
(-1.77822 0.0202327 1.33839 -5.311 0.41642 -12.254)
(-0.825508 0.438696 -2.88694 -6.61181 0.761793 -12.5607)
(0.0249824 0.798816 -3.86385 -8.33693 3.20629 -12.3372)
(0.536583 0.841669 -2.73563 -9.30059 6.87806 -12.9114)
(0.521923 0.46173 -0.444442 -9.18944 9.86397 -13.8034)
(-0.173519 -0.221741 0.692335 -8.42239 10.1777 -13.1608)
(-1.21014 -0.730285 -1.48384 -6.98635 7.46893 -13.3366)
(-1.82699 -0.604532 -7.09161 -6.45777 3.83555 -13.9839)
(-1.24109 0.0609857 -13.4019 -7.90596 2.47201 -16.1125)
(0.485384 0.742017 -15.2965 -10.9411 4.87981 -19.8382)
(2.03255 0.864949 -10.2925 -13.9133 9.44882 -22.2843)
(2.23819 0.223323 -2.19544 -14.9473 12.7283 -20.7753)
(1.43699 -0.887487 3.89545 -12.9079 12.0254 -18.8761)
(0.957596 -2.15905 6.70234 -10.5549 6.39113 -15.6467)
(1.7783 -3.35679 9.93829 -10.0531 -4.09166 -12.0807)
(3.59052 -3.72723 19.413 -11.5115 -17.0611 -10.0588)
(10.3424 -2.12967 34.8584 -13.6086 -24.7594 -20.1904)
(37.5918 -0.744953 38.535 -14.9852 -13.3251 -111.201)
(17.3983 -0.542427 -14.6071 -23.4264 24.3388 -33.6433)
(5.26617 -2.55503 -8.80586 -15.5501 16.1502 -19.0822)
(1.6147 -3.51652 -2.28889 -13.9798 3.24819 -16.991)
(0.41272 -3.25601 0.605068 -13.0299 -11.4235 -17.1521)
(-0.268468 -1.86192 0.284805 -11.8132 -22.6748 -19.0517)
(-0.0669017 -0.038799 -1.25848 -11.9382 -26.3166 -21.2503)
(1.01586 1.32414 -0.305901 -13.3575 -22.2107 -23.3655)
(2.01152 1.70234 5.23543 -14.4573 -14.1692 -24.3836)
(1.82328 1.27548 12.7782 -13.6723 -6.73117 -22.6874)
(0.385778 0.586918 17.1372 -10.7934 -2.32984 -19.1849)
(-1.30529 0.0477799 15.2709 -7.41514 -1.08963 -15.3588)
(-2.12445 -0.184813 8.56939 -5.38131 -1.92698 -12.871)
(-1.74542 -0.105578 1.42751 -5.3121 -3.36503 -12.3416)
(-0.778449 0.212682 -2.64591 -6.63849 -3.88701 -12.6155)
(0.0571556 0.616513 -3.45695 -8.354 -2.50151 -12.3115)
(0.520569 0.80992 -2.27431 -9.25329 0.542199 -12.7854)
(0.449509 0.540162 -0.143037 -9.05922 3.54674 -13.6019)
(-0.260677 -0.0578141 0.661023 -8.23622 4.43342 -12.9632)
(-1.24453 -0.552387 -1.7793 -6.86892 2.63443 -13.1963)
(-1.78181 -0.576399 -7.35783 -6.4476 -0.693617 -13.9039)
(-1.15803 -0.113112 -13.3823 -7.97238 -3.12361 -16.0051)
(0.531737 0.443536 -14.9873 -11.0208 -2.87024 -19.5645)
(1.99428 0.6227 -9.95601 -13.9375 -0.303829 -21.7895)
(2.11894 0.287537 -2.14122 -14.8726 2.44243 -20.2218)
(1.25425 -0.580669 3.45049 -12.77 3.13725 -18.4227)
(0.715766 -1.94809 5.56292 -10.3659 -0.860556 -15.4781)
(1.5083 -3.38386 7.8948 -9.84334 -11.0092 -12.4017)
(3.39754 -3.92252 16.4167 -11.3476 -25.0318 -11.0119)
(10.1085 -2.40262 31.4191 -13.6322 -34.1715 -21.0923)
(36.5054 -0.987213 36.4377 -15.3618 -23.996 -106.952)
(16.8816 -0.603377 -14.8717 -22.6062 8.90288 -32.9986)
(5.02647 -2.51371 -10.3513 -14.9666 6.05475 -18.2388)
(1.59508 -3.57586 -4.25226 -13.6312 -6.10714 -16.7113)
(0.577719 -3.07254 -1.04698 -12.9243 -20.3169 -17.3109)
(-0.0244335 -1.64277 -0.600655 -11.7738 -30.919 -19.3798)
(0.147116 -0.0139548 -1.28468 -11.8711 -34.7462 -21.5265)
(1.12037 1.21225 0.266583 -13.1844 -31.6524 -23.4198)
(1.99481 1.63518 5.93576 -14.165 -24.3682 -24.184)
(1.74499 1.37103 13.2571 -13.3071 -16.3404 -22.4083)
(0.314353 0.802119 17.3264 -10.4416 -9.86593 -18.965)
(-1.33761 0.229052 15.2688 -7.11839 -6.23331 -15.2765)
(-2.11869 -0.149931 8.51438 -5.12506 -5.66691 -12.9231)
(-1.71476 -0.233372 1.43144 -5.09861 -7.08921 -12.4099)
(-0.729542 -0.0196661 -2.50862 -6.48585 -8.51391 -12.6273)
(0.105492 0.428699 -3.12528 -8.24114 -8.19713 -12.293)
(0.521593 0.779003 -1.81522 -9.06676 -5.72417 -12.6844)
(0.388059 0.621994 0.1963 -8.75129 -2.61697 -13.397)
(-0.335553 0.108556 0.710632 -7.90184 -1.12969 -12.7514)
(-1.27343 -0.371217 -1.95221 -6.57734 -2.06033 -13.0034)
(-1.74437 -0.541922 -7.52458 -6.2262 -5.15358 -13.7454)
(-1.09299 -0.281031 -13.3242 -7.76449 -8.68572 -15.8143)
(0.557154 0.147326 -14.7172 -10.779 -10.5786 -19.1628)
(1.95869 0.38049 -9.6991 -13.6395 -9.96722 -21.2191)
(2.02815 0.353381 -2.06395 -14.5259 -7.69843 -19.7502)
(1.08615 -0.264364 3.14441 -12.3329 -5.55488 -18.0207)
(0.465063 -1.70845 4.53637 -9.89516 -7.89667 -15.2449)
(1.22558 -3.35885 5.88627 -9.37839 -17.7277 -12.5391)
(3.18384 -4.06238 13.4091 -10.95 -32.8778 -11.6075)
(9.80854 -2.64603 27.9429 -13.4134 -43.6232 -21.5128)
(35.2661 -1.2428 34.266 -15.1809 -34.8039 -102.827)
(16.8692 -0.641575 -15.7863 -21.0565 -5.78994 -34.8106)
(4.93636 -2.44552 -12.5314 -14.2421 -3.66866 -17.3172)
(1.67874 -3.60327 -6.44784 -13.1702 -15.2794 -16.3255)
(0.809417 -2.85181 -2.56474 -12.5946 -29.1865 -17.4513)
(0.217983 -1.38975 -1.25932 -11.4006 -39.1658 -19.5059)
(0.323851 0.0233147 -1.20235 -11.44 -43.151 -21.3974)
(1.18986 1.0918 0.816453 -12.6525 -40.9836 -22.9511)
(1.95696 1.53927 6.54226 -13.5302 -34.3629 -23.4355)
(1.65912 1.42053 13.6268 -12.6284 -25.6802 -21.668)
(0.245504 0.966608 17.4161 -9.82905 -17.1388 -18.4072)
(-1.36123 0.376765 15.1778 -6.60949 -11.1421 -14.9845)
(-2.10589 -0.124559 8.38191 -4.67394 -9.18478 -12.8487)
(-1.68608 -0.361294 1.35361 -4.69668 -10.6265 -12.3477)
(-0.680735 -0.256781 -2.47833 -6.15684 -13.0242 -12.5176)
(0.169127 0.237875 -2.8763 -7.98525 -13.8294 -12.2484)
(0.539881 0.755041 -1.36237 -8.73171 -11.8684 -12.5816)
(0.338539 0.704751 0.5691 -8.27087 -8.5485 -13.1402)
(-0.395504 0.269664 0.839889 -7.42346 -6.45233 -12.4865)
(-1.29349 -0.187835 -1.99327 -6.12249 -6.53283 -12.7041)
(-1.71268 -0.489531 -7.5718 -5.80833 -9.42804 -13.4329)
(-1.04699 -0.416655 -13.204 -7.3042 -14.054 -15.4281)
(0.557697 -0.120328 -14.471 -10.2357 -18.0735 -18.5138)
(1.92175 0.145738 -9.52202 -13.0327 -19.3958 -20.4671)
(1.96529 0.413247 -1.97408 -13.9165 -17.5903 -19.2834)
(0.938777 0.0469275 2.97158 -11.6105 -13.9057 -17.5997)
(0.218181 -1.45155 3.64782 -9.15621 -14.5666 -14.8891)
(0.940996 -3.27373 3.98531 -8.66581 -24.1097 -12.4079)
(2.94727 -4.12864 10.4801 -10.311 -40.4882 -11.6893)
(9.42067 -2.84251 24.4723 -12.936 -53.0238 -21.2158)
(33.7577 -1.52435 31.9825 -14.5132 -45.43 -98.3314)
(17.2913 -0.618846 -17.239 -18.7765 -19.311 -38.8471)