/*--------------------------------*- C++ -*----------------------------------*\
| =========                 |                                                 |
| \\      /  F ield         | OpenFOAM: The Open Source CFD Toolbox           |
|  \\    /   O peration     | Version:  2106                                  |
|   \\  /    A nd           | Website:  www.openfoam.com                      |
|    \\/     M anipulation  |                                                 |
\*---------------------------------------------------------------------------*/
FoamFile
{
    version     2.0;
    format      ascii;
    arch        "LSB;label=32;scalar=64";
    class       volSymmTensorField;
    location    "747";
    object      sigma;
}
// * * * * * * * * * * * * * * * * * * * * * * * * * * * * * * * * * * * * * //

dimensions      [1 -1 -2 0 0 0 0];

internalField   nonuniform List<symmTensor> 
9000
(
(8.46922e+10 -1.67811e+09 1.09147e+10 4.63959e+10 4.08615e+10 4.7391e+11)
(1.69276e+11 5.94541e+08 -1.80354e+10 5.76203e+10 4.91521e+10 5.17306e+11)
(1.50566e+11 -2.06695e+07 -3.29357e+10 4.80662e+10 3.94594e+10 4.31255e+11)
(1.14237e+11 1.81099e+08 -3.1124e+10 3.42098e+10 2.57135e+10 3.08888e+11)
(7.78288e+10 2.83685e+08 -1.18743e+10 2.07975e+10 1.69334e+10 1.92209e+11)
(7.55051e+10 7.87379e+07 1.80761e+10 2.03361e+10 1.74375e+10 1.88295e+11)
(1.02655e+11 -3.76862e+07 3.32009e+10 3.12688e+10 2.64253e+10 2.88066e+11)
(1.33557e+11 -2.03636e+07 1.98742e+10 4.33738e+10 3.57996e+10 3.98615e+11)
(1.36102e+11 7.2883e+07 -8.46433e+09 4.45488e+10 3.72863e+10 4.0947e+11)
(1.11663e+11 1.4631e+08 -2.80807e+10 3.54357e+10 3.02347e+10 3.25669e+11)
(7.6356e+10 1.66649e+08 -2.87311e+10 2.26397e+10 2.00846e+10 2.074e+11)
(5.13126e+10 1.19451e+08 -1.42348e+10 1.41189e+10 1.35878e+10 1.27217e+11)
(4.77091e+10 -4.59394e+07 2.0108e+09 1.35726e+10 1.29602e+10 1.21357e+11)
(6.07823e+10 -1.65571e+08 8.14758e+09 1.85472e+10 1.54862e+10 1.66662e+11)
(7.16086e+10 -1.20324e+08 8.62955e+09 2.23251e+10 1.86565e+10 2.00454e+11)
(8.4868e+10 -1.95987e+06 8.97423e+09 2.69183e+10 2.26662e+10 2.42668e+11)
(9.62722e+10 -2.20847e+07 1.13879e+09 3.10426e+10 2.56555e+10 2.80448e+11)
(8.96579e+10 3.91733e+07 -9.07744e+09 2.88316e+10 2.35386e+10 2.5892e+11)
(7.81822e+10 1.57003e+08 -1.24662e+10 2.39413e+10 1.97505e+10 2.16152e+11)
(6.66942e+10 7.78493e+07 -3.56122e+09 1.86706e+10 1.64705e+10 1.703e+11)
(7.60629e+10 -1.01046e+08 1.87201e+10 2.11551e+10 1.94873e+10 1.94056e+11)
(1.13593e+11 -3.28912e+08 3.38847e+10 3.46068e+10 2.93635e+10 3.18938e+11)
(1.5479e+11 -4.64427e+08 2.16527e+10 4.99429e+10 3.87769e+10 4.60026e+11)
(1.67892e+11 8.96249e+07 -1.05801e+10 5.46395e+10 3.93512e+10 4.97008e+11)
(1.31289e+11 5.3422e+08 -2.42857e+10 4.07236e+10 3.65642e+10 3.69658e+11)
(1.08475e+11 2.63235e+08 -1.14302e+10 3.16992e+10 3.01808e+10 2.85635e+11)
(9.74053e+10 7.23433e+07 1.022e+10 2.77681e+10 2.70712e+10 2.52192e+11)
(1.03328e+11 -2.00313e+08 2.8554e+10 3.06358e+10 2.69423e+10 2.8126e+11)
(9.63725e+10 -1.05516e+09 3.01369e+10 3.04273e+10 2.43148e+10 2.7388e+11)
(1.96833e+10 2.02675e+07 1.41687e+10 9.45399e+09 1.08548e+10 1.01635e+11)
(4.9266e+10 -3.54104e+09 6.61957e+09 3.47847e+10 7.11673e+10 2.79308e+11)
(1.10677e+11 1.10488e+09 -1.48568e+10 5.19666e+10 8.41881e+10 3.26915e+11)
(9.91277e+10 1.26336e+09 -2.26231e+10 4.28509e+10 6.585e+10 2.7153e+11)
(7.74476e+10 2.09719e+09 -1.98158e+10 3.18935e+10 3.98454e+10 1.98801e+11)
(5.3767e+10 1.59205e+09 -6.57417e+09 1.92e+10 2.59501e+10 1.25999e+11)
(5.23285e+10 -4.47719e+08 1.39767e+10 1.88175e+10 2.75326e+10 1.2415e+11)
(7.05215e+10 -1.57814e+09 2.43347e+10 2.96355e+10 4.31458e+10 1.89834e+11)
(9.16115e+10 -8.99016e+08 1.46423e+10 4.19386e+10 5.88033e+10 2.63287e+11)
(9.27944e+10 7.4645e+08 -5.52406e+09 4.26702e+10 6.1842e+10 2.69251e+11)
(7.60325e+10 1.88268e+09 -1.94219e+10 3.34992e+10 5.01623e+10 2.1348e+11)
(5.1758e+10 1.95654e+09 -2.02315e+10 2.07056e+10 3.33997e+10 1.34747e+11)
(3.40476e+10 1.02911e+09 -1.04158e+10 1.18526e+10 2.32834e+10 8.0276e+10)
(3.12568e+10 -3.66132e+08 7.69728e+08 1.12276e+10 2.24607e+10 7.59279e+10)
(4.05669e+10 -9.91419e+08 4.67601e+09 1.67447e+10 2.55407e+10 1.06634e+11)
(4.65178e+10 -8.49903e+08 4.84546e+09 1.9213e+10 3.11828e+10 1.25093e+11)
(5.52699e+10 -6.03813e+08 5.69291e+09 2.33951e+10 3.80613e+10 1.52063e+11)
(6.4034e+10 -1.67417e+08 5.70373e+08 2.83457e+10 4.26271e+10 1.79376e+11)
(5.84972e+10 5.40191e+08 -6.16893e+09 2.54499e+10 3.9279e+10 1.62812e+11)
(5.24038e+10 9.49119e+08 -8.43162e+09 2.18725e+10 3.23551e+10 1.38902e+11)
(4.53037e+10 2.85532e+08 -2.92659e+09 1.68708e+10 2.6968e+10 1.10324e+11)
(5.18473e+10 -1.40748e+09 1.23359e+10 1.90104e+10 3.24499e+10 1.25882e+11)
(7.81912e+10 -2.86041e+09 2.3189e+10 3.2951e+10 4.79792e+10 2.10146e+11)
(1.06819e+11 -2.52339e+09 1.45089e+10 4.90811e+10 6.15485e+10 3.04848e+11)
(1.14968e+11 9.83654e+08 -8.50701e+09 5.36041e+10 6.06731e+10 3.25776e+11)
(8.68793e+10 2.96687e+09 -1.6943e+10 3.56433e+10 6.25555e+10 2.34252e+11)
(7.2841e+10 1.49364e+09 -6.01842e+09 2.75725e+10 5.20552e+10 1.81143e+11)
(6.68292e+10 1.60848e+08 1.16676e+10 2.46989e+10 4.66375e+10 1.62165e+11)
(7.37142e+10 -6.64868e+08 2.87249e+10 3.01947e+10 4.42788e+10 1.87606e+11)
(6.92756e+10 -9.71198e+08 3.40509e+10 3.08444e+10 3.92319e+10 1.82065e+11)
(3.85183e+09 1.47443e+09 1.9107e+10 -6.2523e+09 2.00537e+10 2.40729e+10)
(2.90714e+10 -4.13209e+09 2.03315e+09 3.23649e+10 7.96885e+10 1.5481e+11)
(8.07928e+10 7.75885e+08 -1.21175e+10 5.61445e+10 9.05693e+10 2.16427e+11)
(7.10062e+10 1.13378e+09 -1.5131e+10 4.581e+10 7.02728e+10 1.77124e+11)
(5.5193e+10 2.18169e+09 -1.10677e+10 3.36788e+10 4.10797e+10 1.29426e+11)
(3.87755e+10 1.78871e+09 -2.06122e+09 2.04235e+10 2.5617e+10 8.45314e+10)
(3.84616e+10 -4.77909e+08 1.10594e+10 2.02958e+10 2.73453e+10 8.56364e+10)
(5.28804e+10 -1.79393e+09 1.75855e+10 3.24118e+10 4.41175e+10 1.32513e+11)
(6.93718e+10 -9.87873e+08 1.0671e+10 4.61083e+10 6.06804e+10 1.84438e+11)
(7.01323e+10 9.46945e+08 -3.1314e+09 4.69558e+10 6.42242e+10 1.87943e+11)
(5.71388e+10 2.27921e+09 -1.25587e+10 3.6836e+10 5.19277e+10 1.48493e+11)
(3.83345e+10 2.42507e+09 -1.3372e+10 2.26612e+10 3.44916e+10 9.28662e+10)
(2.47024e+10 1.33869e+09 -7.14515e+09 1.28584e+10 2.43293e+10 5.45221e+10)
(2.26184e+10 -3.79111e+08 -1.5091e+08 1.21368e+10 2.36181e+10 5.15946e+10)
(2.93613e+10 -1.11123e+09 1.78341e+09 1.79495e+10 2.66318e+10 7.17028e+10)
(3.26061e+10 -9.15945e+08 1.82694e+09 2.01833e+10 3.31829e+10 8.04478e+10)
(3.90832e+10 -7.11171e+08 3.23796e+09 2.47555e+10 4.05266e+10 9.85782e+10)
(4.65949e+10 -1.91527e+08 1.15131e+08 3.05263e+10 4.48833e+10 1.19982e+11)
(4.14272e+10 5.73733e+08 -3.95084e+09 2.69685e+10 4.18816e+10 1.05956e+11)
(3.8014e+10 9.67635e+08 -5.22183e+09 2.35491e+10 3.36521e+10 9.33388e+10)
(3.3059e+10 2.75688e+08 -2.34902e+09 1.83441e+10 2.761e+10 7.53209e+10)
(3.83369e+10 -1.71507e+09 7.33206e+09 2.08885e+10 3.33294e+10 8.69612e+10)
(5.86507e+10 -3.50825e+09 1.44113e+10 3.62378e+10 4.91686e+10 1.46319e+11)
(7.98901e+10 -3.03005e+09 8.13881e+09 5.35661e+10 6.2874e+10 2.10255e+11)
(8.36818e+10 1.36535e+09 -6.60579e+09 5.73245e+10 6.26897e+10 2.17141e+11)
(6.39666e+10 3.62251e+09 -1.03645e+10 3.87806e+10 6.59912e+10 1.5789e+11)
(5.46343e+10 1.68599e+09 -1.56277e+09 3.04265e+10 5.4659e+10 1.24334e+11)
(5.16986e+10 2.57119e+07 1.2785e+10 2.78466e+10 4.84093e+10 1.14438e+11)
(5.8419e+10 -9.70625e+08 2.83328e+10 3.42457e+10 4.4918e+10 1.35297e+11)
(5.4967e+10 -9.29975e+08 3.56376e+10 3.40291e+10 4.00069e+10 1.27888e+11)
(-5.60793e+09 1.88802e+09 2.28001e+10 -1.49765e+10 2.37436e+10 -2.74263e+10)
(1.31862e+10 -4.17455e+09 -2.60448e+09 1.91097e+10 8.18485e+10 6.53751e+10)
(5.60836e+10 3.7683e+07 -1.01937e+10 4.51237e+10 8.79989e+10 1.3842e+11)
(4.75718e+10 5.37156e+08 -9.40431e+09 3.61336e+10 6.80406e+10 1.10417e+11)
(3.59426e+10 1.50857e+09 -4.18199e+09 2.62808e+10 3.92545e+10 7.81733e+10)
(2.53484e+10 1.38288e+09 1.60588e+09 1.58439e+10 2.31172e+10 5.277e+10)
(2.60196e+10 -4.11613e+08 8.7849e+09 1.60435e+10 2.43664e+10 5.64837e+10)
(3.73914e+10 -1.51861e+09 1.21825e+10 2.65364e+10 4.02867e+10 9.04994e+10)
(4.99879e+10 -7.68634e+08 7.52843e+09 3.83761e+10 5.60067e+10 1.27056e+11)
(5.05335e+10 9.51485e+08 -1.08816e+09 3.9096e+10 5.96815e+10 1.29111e+11)
(4.07274e+10 2.1224e+09 -6.85537e+09 3.04973e+10 4.8134e+10 1.01207e+11)
(2.66493e+10 2.3042e+09 -7.5753e+09 1.84248e+10 3.19098e+10 6.23031e+10)
(1.66876e+10 1.33195e+09 -4.24727e+09 1.00329e+10 2.256e+10 3.62573e+10)
(1.52827e+10 -2.44164e+08 -7.68796e+08 9.39962e+09 2.18751e+10 3.46501e+10)
(1.97144e+10 -8.53178e+08 -5.41115e+08 1.41572e+10 2.49564e+10 4.65139e+10)
(2.09129e+10 -6.64177e+08 -5.75734e+08 1.52946e+10 3.20163e+10 4.85956e+10)
(2.54807e+10 -6.21736e+08 1.29521e+09 1.90532e+10 3.9091e+10 6.04457e+10)
(3.17166e+10 -1.67476e+08 -2.4128e+08 2.44322e+10 4.26917e+10 7.72687e+10)
(2.71289e+10 4.13016e+08 -2.21878e+09 2.09418e+10 4.04525e+10 6.56035e+10)
(2.55889e+10 6.43708e+08 -2.72601e+09 1.8788e+10 3.16183e+10 6.01974e+10)
(2.23097e+10 1.49487e+08 -1.91864e+09 1.47029e+10 2.54352e+10 4.94968e+10)
(2.64837e+10 -1.59577e+09 3.22363e+09 1.69451e+10 3.06147e+10 5.85127e+10)
(4.14551e+10 -3.24678e+09 7.06137e+09 3.00251e+10 4.52567e+10 9.93924e+10)
(5.62018e+10 -2.66756e+09 2.7179e+09 4.4388e+10 5.832e+10 1.39983e+11)
(5.65609e+10 1.40832e+09 -4.95243e+09 4.63195e+10 6.00429e+10 1.36824e+11)
(4.46459e+10 3.22977e+09 -4.8699e+09 3.10996e+10 6.21325e+10 1.03824e+11)
(3.92433e+10 1.36117e+09 2.08185e+09 2.48234e+10 5.09036e+10 8.46044e+10)
(3.88691e+10 -1.97539e+08 1.36432e+10 2.35276e+10 4.42012e+10 8.12791e+10)
(4.50646e+10 -1.1011e+09 2.76934e+10 2.98603e+10 4.02792e+10 9.79138e+10)
(4.23551e+10 -7.44898e+08 3.6321e+10 2.87437e+10 3.64544e+10 8.82576e+10)
(-1.29319e+10 1.85504e+09 2.57764e+10 -2.51997e+10 2.50571e+10 -6.52436e+10)
(1.06295e+09 -3.91146e+09 -6.8677e+09 2.80117e+09 8.3603e+10 1.62589e+09)
(3.62813e+10 -7.42948e+08 -9.06154e+09 2.94155e+10 8.45071e+10 8.21306e+10)
(2.8839e+10 -1.87063e+08 -5.11106e+09 2.25561e+10 6.52987e+10 6.27626e+10)
(2.02312e+10 5.29513e+08 9.4175e+08 1.58812e+10 3.79783e+10 4.06866e+10)
(1.38597e+10 6.81134e+08 4.27792e+09 9.15595e+09 2.1248e+10 2.80917e+10)
(1.5187e+10 -3.54377e+08 6.92217e+09 9.67998e+09 2.17048e+10 3.34283e+10)
(2.40391e+10 -1.05054e+09 7.8974e+09 1.76467e+10 3.63509e+10 5.80235e+10)
(3.34015e+10 -4.19981e+08 5.10114e+09 2.66176e+10 5.11014e+10 8.31465e+10)
(3.38664e+10 8.71091e+08 6.57244e+08 2.71733e+10 5.48036e+10 8.43758e+10)
(2.67114e+10 1.71756e+09 -2.16354e+09 2.08998e+10 4.42302e+10 6.50125e+10)
(1.66281e+10 1.87878e+09 -2.76085e+09 1.20628e+10 2.93153e+10 3.87594e+10)
(9.7957e+09 1.13575e+09 -1.75715e+09 5.90006e+09 2.05379e+10 2.21751e+10)
(8.97161e+09 -5.39081e+07 -1.10323e+09 5.46529e+09 1.97459e+10 2.15899e+10)
(1.15866e+10 -4.16136e+08 -2.23589e+09 8.74171e+09 2.3183e+10 2.75179e+10)
(1.14227e+10 -2.72849e+08 -2.36166e+09 8.62138e+09 3.06774e+10 2.55034e+10)
(1.44464e+10 -4.3882e+08 -2.25174e+08 1.12e+10 3.74442e+10 3.27762e+10)
(1.94001e+10 -1.27067e+08 -5.07701e+08 1.57239e+10 4.0372e+10 4.56262e+10)
(1.55684e+10 1.77286e+08 -9.2083e+08 1.26434e+10 3.87405e+10 3.64635e+10)
(1.51565e+10 2.00808e+08 -9.30017e+08 1.19363e+10 2.96416e+10 3.52296e+10)
(1.30866e+10 -3.03792e+07 -1.68887e+09 9.27527e+09 2.34194e+10 2.94788e+10)
(1.62403e+10 -1.28239e+09 -1.21034e+08 1.09346e+10 2.79113e+10 3.63902e+10)
(2.67017e+10 -2.51529e+09 1.1323e+09 2.05316e+10 4.14594e+10 6.3247e+10)
(3.61653e+10 -1.86668e+09 -1.52757e+09 3.06016e+10 5.43178e+10 8.65472e+10)
(3.44208e+10 1.22715e+09 -3.64468e+09 3.05529e+10 5.81403e+10 7.79833e+10)
(2.85055e+10 2.30422e+09 -7.0443e+08 1.99881e+10 5.7665e+10 6.34374e+10)
(2.62206e+10 7.90177e+08 4.88059e+09 1.64663e+10 4.65317e+10 5.45825e+10)
(2.78375e+10 -4.55028e+08 1.42221e+10 1.6689e+10 3.93896e+10 5.59299e+10)
(3.35156e+10 -1.12343e+09 2.69539e+10 2.24919e+10 3.54044e+10 6.92794e+10)
(3.15335e+10 -5.57886e+08 3.65871e+10 2.05766e+10 3.27458e+10 5.8046e+10)
(-1.86781e+10 1.61352e+09 2.81382e+10 -3.50552e+10 2.548e+10 -9.35334e+10)
(-7.58244e+09 -3.45273e+09 -1.03872e+10 -1.23915e+10 8.504e+10 -4.15453e+10)
(2.10905e+10 -1.38428e+09 -8.48557e+09 1.38952e+10 8.07983e+10 4.20948e+10)
(1.45803e+10 -8.67423e+08 -2.05652e+09 9.22469e+09 6.2429e+10 2.94365e+10)
(8.15084e+09 -4.73395e+08 4.40206e+09 5.50602e+09 3.70033e+10 1.43347e+10)
(4.54208e+09 -8.04171e+07 5.93236e+09 2.18421e+09 2.00039e+10 9.3901e+09)
(6.14673e+09 -3.23928e+08 5.35396e+09 2.95329e+09 1.96183e+10 1.52172e+10)
(1.28927e+10 -5.42058e+08 4.61554e+09 8.38408e+09 3.29135e+10 3.26117e+10)
(1.96647e+10 -4.06329e+07 3.33119e+09 1.44856e+10 4.67971e+10 4.92277e+10)
(2.01301e+10 7.67089e+08 2.13122e+09 1.49298e+10 5.04881e+10 5.00253e+10)
(1.5144e+10 1.23748e+09 1.58392e+09 1.10308e+10 4.0946e+10 3.71376e+10)
(8.31448e+09 1.32979e+09 1.08108e+09 5.48666e+09 2.7191e+10 2.0482e+10)
(3.98232e+09 8.50137e+08 2.85077e+08 1.63285e+09 1.87243e+10 1.09099e+10)
(3.6168e+09 1.30495e+08 -1.19237e+09 1.44115e+09 1.77858e+10 1.10058e+10)
(4.97706e+09 4.72455e+07 -3.30922e+09 3.27323e+09 2.1638e+10 1.31157e+10)
(4.06768e+09 1.3501e+08 -3.55667e+09 2.07603e+09 2.93811e+10 9.07908e+09)
(5.91089e+09 -2.20383e+08 -1.3607e+09 3.49434e+09 3.58761e+10 1.30756e+10)
(9.64117e+09 -8.4173e+07 -6.95623e+08 7.03844e+09 3.83521e+10 2.24113e+10)
(6.62941e+09 -6.01351e+07 -1.59545e+07 4.5359e+09 3.70656e+10 1.57232e+10)
(6.75824e+09 -2.24761e+08 2.22345e+08 5.0354e+09 2.80703e+10 1.65415e+10)
(5.47596e+09 -2.17118e+08 -1.67608e+09 3.6467e+09 2.18981e+10 1.39258e+10)
(7.68104e+09 -9.09414e+08 -2.77109e+09 4.63735e+09 2.57027e+10 1.89276e+10)
(1.45269e+10 -1.61522e+09 -3.3807e+09 1.06859e+10 3.83795e+10 3.52778e+10)
(2.00042e+10 -9.59533e+08 -4.56011e+09 1.65095e+10 5.12909e+10 4.64942e+10)
(1.73619e+10 9.43544e+08 -2.71274e+09 1.48643e+10 5.66782e+10 3.63222e+10)
(1.54412e+10 1.2531e+09 2.1367e+09 8.84407e+09 5.36415e+10 3.30112e+10)
(1.54797e+10 1.55251e+08 6.83955e+09 7.95626e+09 4.25856e+10 3.13033e+10)
(1.85347e+10 -7.23033e+08 1.44993e+10 9.56605e+09 3.50548e+10 3.58348e+10)
(2.38208e+10 -1.1202e+09 2.61556e+10 1.46658e+10 3.10868e+10 4.69164e+10)
(2.2588e+10 -4.38089e+08 3.65619e+10 1.21129e+10 2.93332e+10 3.49669e+10)
(-2.31128e+10 1.29305e+09 2.99098e+10 -4.35761e+10 2.53179e+10 -1.14542e+11)
(-1.32227e+10 -2.88639e+09 -1.29361e+10 -2.47546e+10 8.52281e+10 -6.82324e+10)
(9.85752e+09 -1.82583e+09 -8.18625e+09 5.92155e+08 7.62503e+10 1.43615e+10)
(4.17869e+09 -1.4154e+09 -2.35669e+07 -2.12185e+09 5.8819e+10 6.8559e+09)
(-6.68304e+08 -1.32403e+09 6.43124e+09 -3.49481e+09 3.554e+10 -3.32396e+09)
(-2.65455e+09 -7.45112e+08 6.68811e+09 -4.2155e+09 1.88241e+10 -4.25844e+09)
(-1.10363e+09 -3.0781e+08 4.01499e+09 -3.3385e+09 1.7722e+10 1.10507e+09)
(3.87048e+09 -7.6206e+07 2.21075e+09 -1.13921e+08 2.96549e+10 1.28624e+10)
(8.63414e+09 3.10548e+08 2.14078e+09 3.51992e+09 4.26875e+10 2.32652e+10)
(9.14304e+09 6.71562e+08 3.36399e+09 3.93301e+09 4.63598e+10 2.38802e+10)
(5.91611e+09 7.837e+08 4.48326e+09 2.15132e+09 3.79184e+10 1.59854e+10)
(1.64776e+09 7.83663e+08 4.01584e+09 -4.76818e+08 2.52801e+10 6.49034e+09)
(-8.02045e+08 5.51969e+08 1.88899e+09 -2.2735e+09 1.70845e+10 1.8373e+09)
(-8.16649e+08 2.73971e+08 -1.08923e+09 -2.2269e+09 1.60235e+10 2.35473e+09)
(-2.1133e+08 4.3659e+08 -3.84872e+09 -1.59183e+09 2.01274e+10 2.34859e+09)
(-1.38871e+09 4.81997e+08 -4.24106e+09 -3.5511e+09 2.78161e+10 -2.22037e+09)
(-3.97936e+08 -4.04728e+06 -2.1518e+09 -3.1149e+09 3.40208e+10 -4.78406e+08)
(2.23122e+09 -4.28192e+07 -8.17969e+08 -5.22773e+08 3.62431e+10 5.83653e+09)
(-3.00931e+06 -2.56526e+08 5.56641e+08 -2.38008e+09 3.51015e+10 1.35801e+09)
(2.74371e+08 -5.61497e+08 8.38077e+08 -1.05198e+09 2.65827e+10 2.91622e+09)
(-5.6088e+08 -3.76058e+08 -1.86084e+09 -1.4793e+09 2.05966e+10 2.07594e+09)
(7.72166e+08 -5.53226e+08 -4.80779e+09 -1.15932e+09 2.37651e+10 5.24598e+09)
(4.84524e+09 -7.526e+08 -6.60091e+09 1.76372e+09 3.56061e+10 1.39333e+10)
(7.5248e+09 -1.58834e+08 -6.52046e+09 3.9931e+09 4.84371e+10 1.733e+10)
(4.83888e+09 6.55133e+08 -2.11436e+09 1.37241e+09 5.46004e+10 7.96054e+09)
(5.23612e+09 3.28402e+08 3.84667e+09 -9.42288e+08 4.97838e+10 1.0455e+10)
(6.89193e+09 -4.30577e+08 8.03817e+09 3.52493e+08 3.89286e+10 1.33507e+10)
(1.09063e+10 -9.885e+08 1.44736e+10 3.05936e+09 3.11262e+10 1.99305e+10)
(1.59223e+10 -1.1485e+09 2.52849e+10 7.44245e+09 2.70708e+10 2.95621e+10)
(1.54233e+10 -3.94893e+08 3.62583e+10 4.42969e+09 2.58559e+10 1.75843e+10)
(-2.64049e+10 9.6527e+08 3.11108e+10 -5.04666e+10 2.45927e+10 -1.2957e+11)
(-1.64343e+10 -2.29431e+09 -1.44559e+10 -3.3856e+10 8.35785e+10 -8.21265e+10)
(1.7732e+09 -2.07351e+09 -7.93574e+09 -9.87952e+09 7.05851e+10 -4.2974e+09)
(-3.15446e+09 -1.8015e+09 1.21866e+09 -1.09804e+10 5.41945e+10 -7.95119e+09)
(-6.82912e+09 -1.94387e+09 7.33809e+09 -1.06769e+10 3.31765e+10 -1.4586e+10)
(-7.97635e+09 -1.23817e+09 6.74112e+09 -9.69659e+09 1.72861e+10 -1.38155e+10)
(-6.71364e+09 -2.89585e+08 2.87284e+09 -8.8718e+09 1.56706e+10 -9.54679e+09)
(-3.22593e+09 3.07802e+08 5.4149e+08 -7.43495e+09 2.62743e+10 -2.23002e+09)
(1.85067e+07 6.03245e+08 1.43412e+09 -5.75081e+09 3.8407e+10 3.74016e+09)
(5.93988e+08 5.98041e+08 4.38793e+09 -5.29098e+09 4.20789e+10 4.34245e+09)
(-1.2166e+09 4.08881e+08 6.65709e+09 -5.30876e+09 3.47995e+10 3.28083e+08)
(-3.52754e+09 3.19377e+08 6.16539e+09 -5.5328e+09 2.33351e+10 -3.9582e+09)
(-4.62283e+09 2.89682e+08 3.10407e+09 -5.64339e+09 1.55371e+10 -5.34024e+09)
(-4.37291e+09 3.61349e+08 -8.54112e+08 -5.39306e+09 1.4392e+10 -4.56796e+09)
(-4.14897e+09 7.04184e+08 -3.98333e+09 -5.6398e+09 1.84813e+10 -5.50789e+09)
(-5.27916e+09 7.31798e+08 -4.5245e+09 -8.03323e+09 2.57936e+10 -9.69909e+09)
(-4.8695e+09 1.87357e+08 -2.64752e+09 -8.3538e+09 3.16511e+10 -9.42814e+09)
(-3.17579e+09 -2.55503e+06 -8.86085e+08 -6.61354e+09 3.37608e+10 -5.58651e+09)
(-4.74372e+09 -3.93748e+08 8.68474e+08 -7.83154e+09 3.26628e+10 -8.26759e+09)
(-4.5344e+09 -7.85372e+08 1.0451e+09 -6.04285e+09 2.49096e+10 -6.65991e+09)
(-5.16871e+09 -4.85998e+08 -2.19559e+09 -5.83844e+09 1.9259e+10 -6.67933e+09)
(-4.60929e+09 -2.51485e+08 -6.32171e+09 -6.15099e+09 2.18734e+10 -5.23428e+09)
(-2.58689e+09 -4.51633e+07 -8.7381e+09 -5.76654e+09 3.27844e+10 -1.96506e+09)
(-1.7378e+09 4.3762e+08 -7.63653e+09 -6.28213e+09 4.5172e+10 -3.18017e+09)
(-3.98521e+09 4.17754e+08 -1.76993e+09 -9.26029e+09 5.14098e+10 -1.05995e+10)
(-2.44361e+09 -3.61483e+08 4.69266e+09 -8.93443e+09 4.57824e+10 -5.74336e+09)
(2.45424e+08 -9.10704e+08 8.59934e+09 -6.00701e+09 3.53307e+10 -1.59426e+08)
(4.83426e+09 -1.24347e+09 1.4163e+10 -2.53016e+09 2.73795e+10 7.62099e+09)
(9.64918e+09 -1.23379e+09 2.43092e+10 1.19767e+09 2.30511e+10 1.63188e+10)
(9.81415e+09 -4.16459e+08 3.5659e+10 -2.11883e+09 2.20114e+10 4.73055e+09)
(-2.86804e+10 6.69342e+08 3.17605e+10 -5.57657e+10 2.32627e+10 -1.39447e+11)
(-1.78009e+10 -1.74104e+09 -1.50264e+10 -3.98932e+10 7.98975e+10 -8.65646e+10)
(-3.92837e+09 -2.16425e+09 -7.59441e+09 -1.75897e+10 6.39179e+10 -1.64587e+10)
(-8.18068e+09 -2.03806e+09 1.88052e+09 -1.7446e+10 4.8638e+10 -1.73483e+10)
(-1.09676e+10 -2.33048e+09 7.43151e+09 -1.60681e+10 2.98542e+10 -2.14003e+10)
(-1.1756e+10 -1.54832e+09 6.30035e+09 -1.41809e+10 1.51647e+10 -2.02218e+10)
(-1.0911e+10 -2.60271e+08 1.91227e+09 -1.3557e+10 1.32392e+10 -1.7349e+10)
(-8.65e+09 5.98749e+08 -5.34539e+08 -1.35031e+10 2.25845e+10 -1.34883e+10)
(-6.53122e+09 8.27668e+08 1.11186e+09 -1.32588e+10 3.37666e+10 -1.06004e+10)
(-5.87392e+09 5.50935e+08 5.23575e+09 -1.26887e+10 3.74697e+10 -9.88204e+09)
(-6.55813e+09 1.34531e+08 8.23649e+09 -1.12955e+10 3.1385e+10 -1.08992e+10)
(-7.41385e+09 -2.53685e+07 7.67963e+09 -9.63575e+09 2.12054e+10 -1.15046e+10)
(-7.56231e+09 8.60165e+07 3.9981e+09 -8.44432e+09 1.39944e+10 -1.07996e+10)
(-7.11828e+09 3.92122e+08 -5.46309e+08 -8.03486e+09 1.27984e+10 -9.88251e+09)
(-7.03578e+09 8.43466e+08 -3.84659e+09 -8.86013e+09 1.66112e+10 -1.10588e+10)
(-7.94986e+09 8.78625e+08 -4.5195e+09 -1.14095e+10 2.32818e+10 -1.44441e+10)
(-7.91159e+09 3.42237e+08 -2.90093e+09 -1.22663e+10 2.87272e+10 -1.50657e+10)
(-6.96725e+09 3.81584e+07 -9.08368e+08 -1.12431e+10 3.08095e+10 -1.31313e+10)
(-8.00935e+09 -4.70335e+08 9.89864e+08 -1.18822e+10 2.97372e+10 -1.44648e+10)
(-7.95626e+09 -9.01775e+08 9.66793e+08 -9.92266e+09 2.29112e+10 -1.30912e+10)
(-8.54725e+09 -5.41283e+08 -2.61942e+09 -9.37865e+09 1.77251e+10 -1.2893e+10)
(-8.6361e+09 -1.93557e+07 -7.40353e+09 -1.02641e+10 1.9867e+10 -1.29673e+10)
(-8.08022e+09 4.61141e+08 -1.00333e+10 -1.18209e+10 2.97108e+10 -1.33988e+10)
(-8.34591e+09 8.145e+08 -8.14708e+09 -1.42491e+10 4.12487e+10 -1.70308e+10)
(-9.96364e+09 2.49921e+08 -1.5959e+09 -1.71105e+10 4.70861e+10 -2.22204e+10)
(-7.98719e+09 -8.04102e+08 4.93618e+09 -1.51228e+10 4.14567e+10 -1.68473e+10)
(-4.71977e+09 -1.26713e+09 8.65885e+09 -1.10948e+10 3.16246e+10 -9.93556e+09)
(1.4355e+08 -1.48185e+09 1.35957e+10 -7.14787e+09 2.36222e+10 -1.59597e+09)
(4.76656e+09 -1.37733e+09 2.31942e+10 -3.99324e+09 1.88332e+10 6.39725e+09)
(5.47966e+09 -4.87961e+08 3.47443e+10 -7.50823e+09 1.76559e+10 -4.63605e+09)
(-3.00547e+10 4.25555e+08 3.18983e+10 -5.96458e+10 2.12269e+10 -1.4486e+11)
(-1.78646e+10 -1.26669e+09 -1.48225e+10 -4.33415e+10 7.42474e+10 -8.45146e+10)
(-7.87884e+09 -2.14606e+09 -7.11495e+09 -2.29106e+10 5.65429e+10 -2.40789e+10)
(-1.15386e+10 -2.16204e+09 2.12855e+09 -2.18741e+10 4.23983e+10 -2.31008e+10)
(-1.36474e+10 -2.52609e+09 6.97428e+09 -1.99168e+10 2.56951e+10 -2.52832e+10)
(-1.43418e+10 -1.70182e+09 5.55039e+09 -1.77313e+10 1.23748e+10 -2.4337e+10)
(-1.39543e+10 -2.19538e+08 1.12257e+09 -1.74198e+10 1.0297e+10 -2.28953e+10)
(-1.26762e+10 8.02312e+08 -1.14906e+09 -1.83941e+10 1.84767e+10 -2.16447e+10)
(-1.13709e+10 9.87458e+08 1.082e+09 -1.91392e+10 2.86878e+10 -2.08285e+10)
(-1.06205e+10 5.31221e+08 5.94043e+09 -1.84121e+10 3.2457e+10 -1.98964e+10)
(-1.04299e+10 -3.6406e+07 9.35095e+09 -1.59214e+10 2.75812e+10 -1.86571e+10)
(-1.02292e+10 -2.44391e+08 8.70835e+09 -1.28486e+10 1.88061e+10 -1.67318e+10)
(-9.72598e+09 -5.46293e+07 4.64015e+09 -1.07033e+10 1.23612e+10 -1.47258e+10)
(-9.14502e+09 3.7586e+08 -2.16004e+08 -1.01763e+10 1.11451e+10 -1.3742e+10)
(-9.07413e+09 8.73142e+08 -3.55391e+09 -1.13311e+10 1.44828e+10 -1.48268e+10)
(-9.71389e+09 9.35105e+08 -4.32539e+09 -1.38336e+10 2.0338e+10 -1.73184e+10)
(-9.89367e+09 4.57052e+08 -2.96419e+09 -1.50341e+10 2.53173e+10 -1.84233e+10)
(-9.51272e+09 8.02938e+07 -8.90587e+08 -1.45799e+10 2.74105e+10 -1.78559e+10)
(-1.01688e+10 -4.9377e+08 9.8287e+08 -1.47335e+10 2.63987e+10 -1.82521e+10)
(-1.02852e+10 -9.30822e+08 7.1005e+08 -1.27983e+10 2.05471e+10 -1.71822e+10)
(-1.09155e+10 -5.50316e+08 -3.07475e+09 -1.21443e+10 1.59039e+10 -1.70857e+10)
(-1.1511e+10 1.39706e+08 -8.13981e+09 -1.35331e+10 1.7624e+10 -1.83841e+10)
(-1.19652e+10 7.69554e+08 -1.07169e+10 -1.64952e+10 2.62724e+10 -2.1236e+10)
(-1.28569e+10 1.00212e+09 -8.25911e+09 -2.01261e+10 3.663e+10 -2.59216e+10)
(-1.38389e+10 1.46967e+08 -1.52344e+09 -2.25824e+10 4.18206e+10 -2.9077e+10)
(-1.17998e+10 -1.03569e+09 4.79599e+09 -1.96833e+10 3.67224e+10 -2.39882e+10)
(-8.28496e+09 -1.50403e+09 8.34643e+09 -1.50061e+10 2.76949e+10 -1.66458e+10)
(-3.37809e+09 -1.69706e+09 1.28039e+10 -1.08374e+10 1.97156e+10 -8.24127e+09)
(1.01681e+09 -1.5647e+09 2.19131e+10 -8.18746e+09 1.43287e+10 -9.33811e+08)
(2.13442e+09 -5.9688e+08 3.35087e+10 -1.18561e+10 1.27689e+10 -1.14444e+10)
(-3.06565e+10 2.35407e+08 3.15964e+10 -6.23055e+10 1.83541e+10 -1.46564e+11)
(-1.71012e+10 -8.9037e+08 -1.40712e+10 -4.47657e+10 6.68675e+10 -7.85336e+10)
(-1.05575e+10 -2.06688e+09 -6.53341e+09 -2.63088e+10 4.87791e+10 -2.85798e+10)
(-1.37208e+10 -2.21819e+09 2.07288e+09 -2.46987e+10 3.57502e+10 -2.64592e+10)
(-1.5322e+10 -2.58808e+09 6.16467e+09 -2.25458e+10 2.08826e+10 -2.73439e+10)
(-1.60547e+10 -1.73978e+09 4.63503e+09 -2.04764e+10 8.92367e+09 -2.68978e+10)
(-1.61005e+10 -1.72496e+08 4.92394e+08 -2.05395e+10 6.78833e+09 -2.67468e+10)
(-1.55768e+10 9.32095e+08 -1.41387e+09 -2.22436e+10 1.38972e+10 -2.73705e+10)
(-1.48396e+10 1.09314e+09 1.26651e+09 -2.36075e+10 2.3152e+10 -2.78752e+10)
(-1.39891e+10 5.38564e+08 6.53389e+09 -2.26915e+10 2.70222e+10 -2.66648e+10)
(-1.31424e+10 -1.11689e+08 1.01192e+10 -1.93661e+10 2.33703e+10 -2.37998e+10)
(-1.21906e+10 -3.5091e+08 9.38354e+09 -1.52755e+10 1.61006e+10 -2.01798e+10)
(-1.12411e+10 -1.38721e+08 5.09163e+09 -1.24685e+10 1.05568e+10 -1.73628e+10)
(-1.05665e+10 3.26733e+08 1.00716e+08 -1.18594e+10 9.3521e+09 -1.63627e+10)
(-1.04537e+10 8.22524e+08 -3.19298e+09 -1.31647e+10 1.20942e+10 -1.72638e+10)
(-1.0831e+10 9.22004e+08 -4.02137e+09 -1.54966e+10 1.70546e+10 -1.89702e+10)
(-1.11225e+10 5.33546e+08 -2.88475e+09 -1.68848e+10 2.15326e+10 -2.02826e+10)
(-1.11356e+10 1.23987e+08 -8.36433e+08 -1.68516e+10 2.364e+10 -2.06076e+10)
(-1.15268e+10 -4.74717e+08 8.98394e+08 -1.66239e+10 2.27489e+10 -2.03997e+10)
(-1.17926e+10 -8.9704e+08 3.59016e+08 -1.48245e+10 1.78423e+10 -1.96176e+10)
(-1.24907e+10 -5.29405e+08 -3.5186e+09 -1.42195e+10 1.37588e+10 -1.9747e+10)
(-1.34518e+10 2.28288e+08 -8.61063e+09 -1.60385e+10 1.50635e+10 -2.19362e+10)
(-1.4569e+10 9.09873e+08 -1.09836e+10 -1.99619e+10 2.24143e+10 -2.6275e+10)
(-1.57754e+10 1.04771e+09 -8.13189e+09 -2.42493e+10 3.13806e+10 -3.12477e+10)
(-1.62112e+10 9.47961e+07 -1.50431e+09 -2.61758e+10 3.58502e+10 -3.27572e+10)
(-1.42751e+10 -1.10788e+09 4.43716e+09 -2.28669e+10 3.15691e+10 -2.81884e+10)
(-1.07362e+10 -1.6361e+09 7.77652e+09 -1.78824e+10 2.34786e+10 -2.09562e+10)
(-5.95887e+09 -1.88233e+09 1.18239e+10 -1.36874e+10 1.55859e+10 -1.28582e+10)
(-1.84749e+09 -1.77433e+09 2.04567e+10 -1.14989e+10 9.52717e+09 -6.32396e+09)
(-4.75906e+08 -7.33698e+08 3.19682e+10 -1.53239e+10 7.4103e+09 -1.64673e+10)
(-3.06385e+10 8.24922e+07 3.09367e+10 -6.39307e+10 1.45576e+10 -1.45421e+11)
(-1.59058e+10 -6.1716e+08 -1.30158e+10 -4.47383e+10 5.8108e+10 -7.0707e+10)
(-1.23102e+10 -1.96725e+09 -5.9451e+09 -2.82391e+10 4.08954e+10 -3.09652e+10)
(-1.50871e+10 -2.24523e+09 1.77346e+09 -2.6337e+10 2.89238e+10 -2.82785e+10)
(-1.6332e+10 -2.56857e+09 5.14141e+09 -2.42713e+10 1.55985e+10 -2.83535e+10)
(-1.71624e+10 -1.70255e+09 3.6567e+09 -2.25635e+10 4.87438e+09 -2.84897e+10)
(-1.75807e+10 -1.26348e+08 7.18773e+06 -2.30136e+10 2.71699e+09 -2.93991e+10)
(-1.76045e+10 1.00242e+09 -1.42102e+09 -2.5201e+10 8.83895e+09 -3.12711e+10)
(-1.72448e+10 1.15677e+09 1.60191e+09 -2.68951e+10 1.71813e+10 -3.25446e+10)
(-1.62925e+10 5.71701e+08 7.04577e+09 -2.57702e+10 2.11891e+10 -3.1026e+10)
(-1.49741e+10 -1.04764e+08 1.06434e+10 -2.18244e+10 1.87888e+10 -2.70552e+10)
(-1.35004e+10 -3.66796e+08 9.81295e+09 -1.70321e+10 1.30956e+10 -2.23351e+10)
(-1.22444e+10 -1.77965e+08 5.40269e+09 -1.37941e+10 8.5353e+09 -1.89998e+10)
(-1.15054e+10 2.58244e+08 3.81339e+08 -1.31325e+10 7.36937e+09 -1.8005e+10)
(-1.13422e+10 7.2081e+08 -2.8238e+09 -1.44776e+10 9.46468e+09 -1.87523e+10)
(-1.15032e+10 8.60869e+08 -3.66567e+09 -1.65846e+10 1.35261e+10 -1.98589e+10)
(-1.18366e+10 5.76517e+08 -2.70368e+09 -1.80425e+10 1.74884e+10 -2.12037e+10)
(-1.21023e+10 1.68996e+08 -7.48502e+08 -1.82904e+10 1.95935e+10 -2.20412e+10)
(-1.23242e+10 -4.23407e+08 7.7676e+08 -1.77784e+10 1.889e+10 -2.14774e+10)
(-1.2709e+10 -8.22739e+08 -2.49199e+07 -1.61639e+10 1.48608e+10 -2.09454e+10)
(-1.3473e+10 -4.95457e+08 -3.92455e+09 -1.57028e+10 1.13001e+10 -2.13163e+10)
(-1.46729e+10 2.52556e+08 -8.88772e+09 -1.78769e+10 1.21543e+10 -2.40803e+10)
(-1.61972e+10 9.20333e+08 -1.09862e+10 -2.2415e+10 1.81317e+10 -2.9246e+10)
(-1.75333e+10 9.97469e+08 -7.87855e+09 -2.69779e+10 2.56102e+10 -3.41209e+10)
(-1.75469e+10 7.88499e+07 -1.5076e+09 -2.83663e+10 2.93898e+10 -3.44013e+10)
(-1.57695e+10 -1.06887e+09 3.97594e+09 -2.49403e+10 2.60458e+10 -3.03361e+10)
(-1.23464e+10 -1.68155e+09 7.04455e+09 -1.98825e+10 1.89719e+10 -2.35055e+10)
(-7.81805e+09 -2.03317e+09 1.0694e+10 -1.58062e+10 1.12219e+10 -1.59658e+10)
(-4.04217e+09 -1.98633e+09 1.8834e+10 -1.40596e+10 4.46784e+09 -1.03123e+10)
(-2.55615e+09 -8.91891e+08 3.01625e+10 -1.80695e+10 1.68024e+09 -2.02849e+10)
(-3.01727e+10 -5.63729e+07 2.99977e+10 -6.47e+10 9.82538e+09 -1.42329e+11)
(-1.45875e+10 -4.43186e+08 -1.18894e+10 -4.3797e+10 4.83518e+10 -6.26262e+10)
(-1.33774e+10 -1.87576e+09 -5.47563e+09 -2.90958e+10 3.30851e+10 -3.19312e+10)
(-1.58899e+10 -2.26868e+09 1.2557e+09 -2.71425e+10 2.20825e+10 -2.91308e+10)
(-1.69175e+10 -2.50497e+09 3.99825e+09 -2.53618e+10 9.9948e+09 -2.88175e+10)
(-1.78686e+10 -1.62151e+09 2.68418e+09 -2.41291e+10 3.17909e+08 -2.95353e+10)
(-1.8583e+10 -8.75905e+07 -3.51175e+08 -2.49347e+10 -1.87023e+09 -3.12504e+10)
(-1.89763e+10 1.02491e+09 -1.24657e+09 -2.74027e+10 3.33385e+09 -3.38633e+10)
(-1.88487e+10 1.18872e+09 2.03709e+09 -2.9213e+10 1.08306e+10 -3.55067e+10)
(-1.77983e+10 6.27957e+08 7.5019e+09 -2.7869e+10 1.50178e+10 -3.36811e+10)
(-1.61568e+10 -3.17832e+07 1.10063e+10 -2.34769e+10 1.39083e+10 -2.90063e+10)
(-1.43328e+10 -3.15661e+08 1.00789e+10 -1.82281e+10 9.83417e+09 -2.36049e+10)
(-1.2867e+10 -1.85481e+08 5.61099e+09 -1.47328e+10 6.29073e+09 -1.99299e+10)
(-1.20813e+10 1.8012e+08 6.13447e+08 -1.40442e+10 5.17908e+09 -1.89421e+10)
(-1.18792e+10 5.90954e+08 -2.48339e+09 -1.53748e+10 6.62791e+09 -1.96037e+10)
(-1.18785e+10 7.6968e+08 -3.29845e+09 -1.72563e+10 9.8326e+09 -2.02938e+10)
(-1.2211e+10 5.92374e+08 -2.45528e+09 -1.87001e+10 1.32835e+10 -2.15682e+10)
(-1.26209e+10 2.15292e+08 -6.28945e+08 -1.91033e+10 1.53663e+10 -2.26437e+10)
(-1.27428e+10 -3.48131e+08 6.49521e+08 -1.83874e+10 1.49145e+10 -2.18935e+10)
(-1.32163e+10 -7.24705e+08 -3.99102e+08 -1.69653e+10 1.16844e+10 -2.15729e+10)
(-1.4031e+10 -4.61049e+08 -4.27959e+09 -1.66909e+10 8.57434e+09 -2.21552e+10)
(-1.5367e+10 2.21406e+08 -9.03251e+09 -1.9145e+10 8.91261e+09 -2.52357e+10)
(-1.71169e+10 8.36921e+08 -1.08392e+10 -2.40398e+10 1.34658e+10 -3.07836e+10)
(-1.84804e+10 8.88351e+08 -7.57519e+09 -2.86397e+10 1.94445e+10 -3.53973e+10)
(-1.81965e+10 8.79382e+07 -1.5139e+09 -2.95524e+10 2.26151e+10 -3.48184e+10)