/*--------------------------------*- C++ -*----------------------------------*\
| =========                 |                                                 |
| \\      /  F ield         | OpenFOAM: The Open Source CFD Toolbox           |
|  \\    /   O peration     | Version:  2106                                  |
|   \\  /    A nd           | Website:  www.openfoam.com                      |
|    \\/     M anipulation  |                                                 |
\*---------------------------------------------------------------------------*/
FoamFile
{
    version     2.0;
    format      ascii;
    arch        "LSB;label=32;scalar=64";
    class       volScalarField;
    location    "29";
    object      YoungsModulus;
}
// * * * * * * * * * * * * * * * * * * * * * * * * * * * * * * * * * * * * * //

dimensions      [1 -1 -2 0 0 0 0];

internalField   uniform 9e+08;

boundaryField
{
    bottom
    {
        type            calculated;
        value           uniform 9e+08;
    }
    top
    {
        type            calculated;
        value           uniform 9e+08;
    }
    frontAndBack
    {
        type            empty;
    }
    left
    {
        type            empty;
    }
    right
    {
        type            empty;
    }
}


// ************************************************************************* //
