/*--------------------------------*- C++ -*----------------------------------*\
| =========                 |                                                 |
| \\      /  F ield         | OpenFOAM: The Open Source CFD Toolbox           |
|  \\    /   O peration     | Version:  2106                                  |
|   \\  /    A nd           | Website:  www.openfoam.com                      |
|    \\/     M anipulation  |                                                 |
\*---------------------------------------------------------------------------*/
FoamFile
{
    version     2.0;
    format      ascii;
    arch        "LSB;label=32;scalar=64";
    class       volVectorField;
    location    "0";
    object      divSigmaExp2;
}
// * * * * * * * * * * * * * * * * * * * * * * * * * * * * * * * * * * * * * //

dimensions      [1 -2 -2 0 0 0 0];

internalField   nonuniform List<vector> 4((0 0 0) (0 0 2.25e+09) (0 0 2.25e+09) (0 0 0));

boundaryField
{
    bottom
    {
        type            extrapolatedCalculated;
        value           uniform (0 0 0);
    }
    top
    {
        type            extrapolatedCalculated;
        value           uniform (0 0 0);
    }
    frontAndBack
    {
        type            empty;
    }
    left
    {
        type            extrapolatedCalculated;
        value           nonuniform List<vector> 4((0 0 0) (0 0 2.25e+09) (0 0 2.25e+09) (0 0 0));
    }
    right
    {
        type            extrapolatedCalculated;
        value           nonuniform List<vector> 4((0 0 0) (0 0 2.25e+09) (0 0 2.25e+09) (0 0 0));
    }
}


// ************************************************************************* //
