/*--------------------------------*- C++ -*----------------------------------*\
| =========                 |                                                 |
| \\      /  F ield         | OpenFOAM: The Open Source CFD Toolbox           |
|  \\    /   O peration     | Version:  2106                                  |
|   \\  /    A nd           | Website:  www.openfoam.com                      |
|    \\/     M anipulation  |                                                 |
\*---------------------------------------------------------------------------*/
FoamFile
{
    version     2.0;
    format      ascii;
    arch        "LSB;label=32;scalar=64";
    class       volVectorField;
    location    "973";
    object      D;
}
// * * * * * * * * * * * * * * * * * * * * * * * * * * * * * * * * * * * * * //

dimensions      [0 1 0 0 0 0 0];

internalField   nonuniform List<vector> 
9000
(
(1.14008e-05 2.08533e-05 3.13262e-06)
(1.32489e-06 2.19596e-05 8.18201e-08)
(2.18753e-07 2.33117e-05 1.22929e-06)
(3.867e-08 2.36143e-05 1.44271e-06)
(4.68931e-09 2.36232e-05 1.44578e-06)
(1.77772e-09 2.35884e-05 1.42377e-06)
(2.11461e-09 2.36077e-05 1.43566e-06)
(9.22006e-10 2.35875e-05 1.42355e-06)
(2.16395e-09 2.3587e-05 1.4231e-06)
(3.15614e-10 2.36141e-05 1.44049e-06)
(-2.20107e-09 2.35985e-05 1.42892e-06)
(1.9363e-09 2.3571e-05 1.41072e-06)
(3.04153e-09 2.36102e-05 1.4381e-06)
(-1.12421e-09 2.36111e-05 1.43829e-06)
(1.36023e-10 2.36022e-05 1.43087e-06)
(1.15873e-09 2.36152e-05 1.44094e-06)
(-1.61948e-09 2.36109e-05 1.4381e-06)
(-2.88656e-10 2.36028e-05 1.43131e-06)
(-1.61765e-09 2.36118e-05 1.43912e-06)
(-1.73167e-09 2.3573e-05 1.41251e-06)
(1.49095e-09 2.35844e-05 1.42142e-06)
(1.18473e-10 2.36128e-05 1.43955e-06)
(-2.29222e-09 2.36152e-05 1.44114e-06)
(-2.19241e-09 2.35897e-05 1.42491e-06)
(-2.20669e-09 2.36104e-05 1.43838e-06)
(-7.34993e-09 2.35978e-05 1.4295e-06)
(-3.81205e-08 2.35957e-05 1.42943e-06)
(-2.17034e-07 2.33053e-05 1.22529e-06)
(-1.32474e-06 2.19591e-05 8.15459e-08)
(-1.1401e-05 2.08521e-05 3.13208e-06)
(1.10742e-05 1.25639e-05 -5.84694e-06)
(1.22249e-06 1.31887e-05 -9.25912e-06)
(1.4278e-07 1.40062e-05 -8.68761e-06)
(2.10105e-08 1.42109e-05 -8.6073e-06)
(5.1564e-09 1.42169e-05 -8.60817e-06)
(2.781e-09 1.41994e-05 -8.6065e-06)
(2.19362e-09 1.42058e-05 -8.6099e-06)
(1.41566e-09 1.41996e-05 -8.60569e-06)
(1.22709e-09 1.41991e-05 -8.60596e-06)
(9.25441e-10 1.42096e-05 -8.60941e-06)
(4.33074e-10 1.42062e-05 -8.60728e-06)
(6.22505e-10 1.41956e-05 -8.60353e-06)
(4.90633e-10 1.42065e-05 -8.6098e-06)
(-1.01078e-10 1.42054e-05 -8.60885e-06)
(-4.25422e-11 1.42088e-05 -8.60723e-06)
(-2.17868e-11 1.42105e-05 -8.60937e-06)
(-2.95487e-10 1.42053e-05 -8.60888e-06)
(-1.84308e-10 1.42091e-05 -8.60717e-06)
(-4.13747e-10 1.42082e-05 -8.60949e-06)
(-6.91511e-10 1.4197e-05 -8.60349e-06)
(-9.33782e-10 1.41976e-05 -8.60545e-06)
(-1.21005e-09 1.42081e-05 -8.61012e-06)
(-1.55237e-09 1.42104e-05 -8.60935e-06)
(-1.93431e-09 1.42007e-05 -8.60579e-06)
(-2.57304e-09 1.42064e-05 -8.61016e-06)
(-5.35741e-09 1.42075e-05 -8.60439e-06)
(-2.10418e-08 1.42053e-05 -8.6052e-06)
(-1.42818e-07 1.39996e-05 -8.68764e-06)
(-1.22261e-06 1.31883e-05 -9.2591e-06)
(-1.10743e-05 1.25627e-05 -5.8472e-06)
(1.11451e-05 7.77712e-06 -7.41061e-06)
(1.21845e-06 8.20001e-06 -1.09328e-05)
(1.29698e-07 8.7472e-06 -1.04557e-05)
(1.54651e-08 8.89422e-06 -1.04013e-05)
(5.30155e-09 8.90015e-06 -1.04033e-05)
(3.1223e-09 8.89471e-06 -1.04005e-05)
(2.20724e-09 8.89173e-06 -1.04036e-05)
(1.80578e-09 8.89702e-06 -1.04005e-05)
(7.04673e-10 8.89634e-06 -1.04008e-05)
(8.15471e-10 8.89483e-06 -1.04035e-05)
(1.49957e-09 8.89236e-06 -1.04027e-05)
(3.1622e-10 8.89426e-06 -1.03991e-05)
(-7.86737e-10 8.8912e-06 -1.04021e-05)
(8.73646e-11 8.89509e-06 -1.04018e-05)
(1.19784e-10 8.8944e-06 -1.04029e-05)
(-5.42731e-10 8.89552e-06 -1.04036e-05)
(3.64119e-11 8.89509e-06 -1.04019e-05)
(1.50858e-10 8.89443e-06 -1.04029e-05)
(2.34695e-10 8.89395e-06 -1.04032e-05)
(-1.25438e-10 8.89522e-06 -1.03996e-05)
(-1.83625e-09 8.89592e-06 -1.03997e-05)
(-1.93786e-09 8.89212e-06 -1.04031e-05)
(-1.10563e-09 8.89556e-06 -1.04036e-05)
(-1.83935e-09 8.8969e-06 -1.04011e-05)
(-2.66259e-09 8.89067e-06 -1.04032e-05)
(-4.49595e-09 8.90254e-06 -1.04001e-05)
(-1.61296e-08 8.89049e-06 -1.04001e-05)
(-1.30345e-07 8.74564e-06 -1.04539e-05)
(-1.21849e-06 8.1998e-06 -1.09326e-05)
(-1.11449e-05 7.7755e-06 -7.41107e-06)
(1.15307e-05 4.89015e-06 -7.09796e-06)
(1.26087e-06 5.15977e-06 -1.0743e-05)
(1.42481e-07 5.5574e-06 -1.02383e-05)
(1.66153e-08 5.66389e-06 -1.018e-05)
(4.82191e-09 5.66962e-06 -1.01823e-05)
(3.09045e-09 5.66625e-06 -1.01821e-05)
(2.31276e-09 5.66253e-06 -1.01824e-05)
(1.68817e-09 5.66733e-06 -1.01835e-05)
(9.02954e-10 5.66569e-06 -1.01827e-05)
(9.78632e-10 5.66609e-06 -1.01823e-05)
(1.40377e-09 5.6642e-06 -1.01823e-05)
(1.33802e-10 5.66529e-06 -1.01824e-05)
(-5.92676e-10 5.66565e-06 -1.01811e-05)
(2.84845e-10 5.671e-06 -1.01821e-05)
(1.16404e-11 5.66615e-06 -1.01822e-05)
(-4.4291e-10 5.66669e-06 -1.01825e-05)
(4.54709e-11 5.67096e-06 -1.01823e-05)
(1.18595e-10 5.66613e-06 -1.01822e-05)
(5.10301e-11 5.66546e-06 -1.01816e-05)
(-3.37766e-10 5.66614e-06 -1.01831e-05)
(-1.78523e-09 5.6666e-06 -1.01826e-05)
(-1.81417e-09 5.66572e-06 -1.01815e-05)
(-1.14715e-09 5.66684e-06 -1.01825e-05)
(-2.01576e-09 5.66585e-06 -1.01834e-05)
(-2.62413e-09 5.66345e-06 -1.01812e-05)
(-4.08615e-09 5.67098e-06 -1.01828e-05)
(-1.69585e-08 5.66141e-06 -1.01794e-05)
(-1.43151e-07 5.56054e-06 -1.02373e-05)
(-1.26112e-06 5.15971e-06 -1.07428e-05)
(-1.15301e-05 4.88771e-06 -7.09776e-06)
(1.20055e-05 3.0883e-06 -6.68533e-06)
(1.31974e-06 3.23565e-06 -1.04719e-05)
(1.60865e-07 3.53283e-06 -9.93139e-06)
(1.98115e-08 3.61011e-06 -9.86561e-06)
(4.62704e-09 3.61481e-06 -9.86754e-06)
(2.73891e-09 3.61726e-06 -9.8687e-06)
(2.32873e-09 3.61104e-06 -9.86822e-06)
(1.5824e-09 3.61406e-06 -9.86904e-06)
(1.08472e-09 3.61414e-06 -9.86856e-06)
(1.20126e-09 3.61289e-06 -9.868e-06)
(1.12752e-09 3.61109e-06 -9.86792e-06)
(2.27389e-10 3.61239e-06 -9.86838e-06)
(-3.42702e-10 3.61535e-06 -9.86859e-06)
(2.64015e-10 3.61644e-06 -9.86939e-06)
(5.30878e-11 3.61342e-06 -9.86813e-06)
(-4.10414e-10 3.6134e-06 -9.8685e-06)
(-1.12903e-11 3.61633e-06 -9.8695e-06)
(1.2121e-10 3.61341e-06 -9.86814e-06)
(-1.85874e-10 3.61243e-06 -9.86737e-06)
(-5.52293e-10 3.6131e-06 -9.86886e-06)
(-1.453e-09 3.61356e-06 -9.86843e-06)
(-1.56507e-09 3.61481e-06 -9.86807e-06)
(-1.46604e-09 3.61393e-06 -9.86834e-06)
(-2.18348e-09 3.61403e-06 -9.86893e-06)
(-2.39132e-09 3.6141e-06 -9.86814e-06)
(-4.03802e-09 3.61619e-06 -9.8682e-06)
(-2.00978e-08 3.60821e-06 -9.86529e-06)
(-1.61344e-07 3.53446e-06 -9.93218e-06)
(-1.32009e-06 3.23565e-06 -1.04717e-05)
(-1.2004e-05 3.08794e-06 -6.68507e-06)
(1.24202e-05 1.94911e-06 -6.45414e-06)
(1.3775e-06 2.01604e-06 -1.03624e-05)
(1.77592e-07 2.23316e-06 -9.79613e-06)
(2.32397e-08 2.2923e-06 -9.72608e-06)
(4.83043e-09 2.29788e-06 -9.72805e-06)
(2.58187e-09 2.3004e-06 -9.73018e-06)
(2.19547e-09 2.29661e-06 -9.72911e-06)
(1.66443e-09 2.2964e-06 -9.72912e-06)
(1.09346e-09 2.29826e-06 -9.72939e-06)
(9.97497e-10 2.29478e-06 -9.72863e-06)
(9.49116e-10 2.29532e-06 -9.72876e-06)
(3.39007e-10 2.29432e-06 -9.72837e-06)
(-8.88661e-11 2.29603e-06 -9.72985e-06)
(3.47909e-10 2.29775e-06 -9.72936e-06)
(4.72117e-11 2.29589e-06 -9.72869e-06)
(-3.46572e-10 2.29506e-06 -9.72874e-06)
(-4.3757e-11 2.29763e-06 -9.7294e-06)
(-2.16448e-11 2.29592e-06 -9.72874e-06)
(-3.45974e-10 2.29421e-06 -9.7281e-06)
(-5.91378e-10 2.29531e-06 -9.72914e-06)
(-1.39413e-09 2.2957e-06 -9.72866e-06)
(-1.38431e-09 2.29773e-06 -9.72979e-06)
(-1.29431e-09 2.29637e-06 -9.72896e-06)
(-2.31407e-09 2.29742e-06 -9.7289e-06)
(-2.39267e-09 2.29813e-06 -9.73022e-06)
(-4.18952e-09 2.29728e-06 -9.72833e-06)
(-2.36631e-08 2.29004e-06 -9.72517e-06)
(-1.77873e-07 2.23404e-06 -9.79685e-06)
(-1.37766e-06 2.01607e-06 -1.03621e-05)
(-1.24184e-05 1.95094e-06 -6.45431e-06)
(1.27244e-05 1.22828e-06 -6.34384e-06)
(1.42538e-06 1.25133e-06 -1.03402e-05)
(1.90924e-07 1.40759e-06 -9.75745e-06)
(2.65303e-08 1.45111e-06 -9.68502e-06)
(5.10804e-09 1.45732e-06 -9.68683e-06)
(2.3264e-09 1.45743e-06 -9.68892e-06)
(2.09926e-09 1.45724e-06 -9.6887e-06)
(1.65859e-09 1.45492e-06 -9.68797e-06)
(9.61454e-10 1.456e-06 -9.68861e-06)
(1.02179e-09 1.45476e-06 -9.68815e-06)
(7.80751e-10 1.45573e-06 -9.68806e-06)
(1.21533e-10 1.45403e-06 -9.68806e-06)
(2.60799e-10 1.45463e-06 -9.68841e-06)
(5.21337e-10 1.45567e-06 -9.68795e-06)
(-8.67041e-11 1.45445e-06 -9.68773e-06)
(-2.63422e-10 1.45476e-06 -9.68798e-06)
(3.39167e-11 1.45556e-06 -9.68796e-06)
(-3.30044e-10 1.45452e-06 -9.68777e-06)
(-4.61485e-10 1.45386e-06 -9.6882e-06)
(-4.92265e-10 1.45333e-06 -9.68776e-06)
(-1.14645e-09 1.45339e-06 -9.68758e-06)
(-1.19339e-09 1.45716e-06 -9.68859e-06)
(-1.51086e-09 1.45495e-06 -9.68799e-06)
(-2.35599e-09 1.45624e-06 -9.68863e-06)
(-2.24988e-09 1.45748e-06 -9.68943e-06)
(-4.62576e-09 1.4546e-06 -9.68688e-06)
(-2.67516e-08 1.44979e-06 -9.68469e-06)
(-1.90984e-07 1.40809e-06 -9.75753e-06)
(-1.42553e-06 1.25136e-06 -1.03398e-05)
(-1.27231e-05 1.22959e-06 -6.34453e-06)
(1.29254e-05 7.73049e-07 -6.28835e-06)
(1.46118e-06 7.76238e-07 -1.03426e-05)
(2.01071e-07 8.865e-07 -9.74942e-06)
(2.88422e-08 9.1729e-07 -9.67564e-06)
(5.37837e-09 9.21882e-07 -9.67764e-06)
(2.33096e-09 9.22107e-07 -9.67886e-06)
(1.97899e-09 9.23121e-07 -9.67948e-06)
(1.54269e-09 9.20599e-07 -9.67859e-06)
(1.05672e-09 9.21187e-07 -9.67881e-06)
(9.96543e-10 9.21901e-07 -9.67874e-06)
(6.21081e-10 9.21112e-07 -9.67895e-06)
(9.04469e-11 9.20738e-07 -9.6788e-06)
(3.5249e-10 9.22346e-07 -9.67915e-06)
(5.23544e-10 9.21047e-07 -9.67846e-06)
(-1.16007e-11 9.2014e-07 -9.67849e-06)
(-1.8298e-10 9.21774e-07 -9.67862e-06)
(-9.83834e-11 9.20941e-07 -9.67849e-06)
(-4.04158e-10 9.20254e-07 -9.67845e-06)
(-6.24511e-10 9.20413e-07 -9.67902e-06)
(-7.27948e-10 9.20119e-07 -9.67879e-06)
(-8.77221e-10 9.19589e-07 -9.67883e-06)
(-8.96881e-10 9.21934e-07 -9.67916e-06)
(-1.46096e-09 9.2067e-07 -9.67864e-06)
(-2.27963e-09 9.22728e-07 -9.67914e-06)
(-2.42868e-09 9.24048e-07 -9.67996e-06)
(-5.00142e-09 9.20987e-07 -9.67778e-06)
(-2.87991e-08 9.16624e-07 -9.67588e-06)
(-2.01058e-07 8.86652e-07 -9.74919e-06)
(-1.46137e-06 7.76113e-07 -1.0342e-05)
(-1.29248e-05 7.73953e-07 -6.28876e-06)
(1.305e-05 4.85796e-07 -6.25686e-06)
(1.48569e-06 4.82074e-07 -1.03471e-05)
(2.08658e-07 5.56996e-07 -9.74746e-06)
(3.05853e-08 5.79381e-07 -9.67276e-06)
(5.5998e-09 5.82719e-07 -9.67477e-06)
(2.3644e-09 5.83011e-07 -9.67571e-06)
(1.88226e-09 5.83582e-07 -9.67639e-06)
(1.48539e-09 5.82119e-07 -9.67574e-06)
(1.115e-09 5.82444e-07 -9.67573e-06)
(9.64186e-10 5.82971e-07 -9.67571e-06)
(4.17324e-10 5.82436e-07 -9.67577e-06)
(2.46726e-10 5.82847e-07 -9.67646e-06)
(5.10675e-10 5.84334e-07 -9.67631e-06)
(3.29348e-10 5.82424e-07 -9.6756e-06)
(1.74579e-11 5.81551e-07 -9.67583e-06)
(-1.06944e-10 5.82802e-07 -9.67576e-06)
(-1.8357e-10 5.82338e-07 -9.67564e-06)
(-5.76833e-10 5.81809e-07 -9.67569e-06)
(-5.52182e-10 5.81998e-07 -9.67632e-06)
(-6.60371e-10 5.82716e-07 -9.6761e-06)
(-8.47304e-10 5.83242e-07 -9.67651e-06)
(-7.90552e-10 5.8293e-07 -9.67587e-06)
(-1.42859e-09 5.82218e-07 -9.67576e-06)
(-2.04292e-09 5.83465e-07 -9.67624e-06)
(-2.36936e-09 5.85263e-07 -9.67655e-06)
(-5.60915e-09 5.83424e-07 -9.67489e-06)
(-3.06165e-08 5.78773e-07 -9.67361e-06)
(-2.08461e-07 5.56932e-07 -9.7472e-06)
(-1.48585e-06 4.81787e-07 -1.03468e-05)
(-1.30499e-05 4.8653e-07 -6.25694e-06)
(1.31242e-05 3.04269e-07 -6.23765e-06)
(1.50154e-06 2.99595e-07 -1.03495e-05)
(2.1418e-07 3.49391e-07 -9.7456e-06)
(3.18999e-08 3.65318e-07 -9.67069e-06)
(5.80474e-09 3.67553e-07 -9.67273e-06)
(2.40661e-09 3.67983e-07 -9.67359e-06)
(1.81638e-09 3.68305e-07 -9.67388e-06)
(1.43607e-09 3.67476e-07 -9.67369e-06)
(1.1189e-09 3.67667e-07 -9.67366e-06)
(9.35395e-10 3.67928e-07 -9.67343e-06)
(4.89066e-10 3.67686e-07 -9.67357e-06)
(3.4072e-10 3.68853e-07 -9.67407e-06)
(4.35849e-10 3.68832e-07 -9.67404e-06)
(1.68429e-10 3.677e-07 -9.67355e-06)
(3.55848e-12 3.66492e-07 -9.6737e-06)
(-1.5139e-11 3.67834e-07 -9.67365e-06)
(-2.20937e-10 3.67663e-07 -9.67361e-06)
(-6.33267e-10 3.67113e-07 -9.67385e-06)
(-5.30375e-10 3.68905e-07 -9.67441e-06)
(-5.03305e-10 3.67246e-07 -9.67406e-06)
(-7.7071e-10 3.68978e-07 -9.67459e-06)
(-8.83611e-10 3.67961e-07 -9.67363e-06)
(-1.40459e-09 3.67596e-07 -9.67368e-06)
(-1.89447e-09 3.68294e-07 -9.67382e-06)
(-2.35883e-09 3.69276e-07 -9.67406e-06)
(-5.96583e-09 3.6819e-07 -9.67294e-06)
(-3.19882e-08 3.6606e-07 -9.67171e-06)
(-2.13929e-07 3.49171e-07 -9.74545e-06)
(-1.50164e-06 2.99366e-07 -1.03494e-05)
(-1.31245e-05 3.05088e-07 -6.23745e-06)
(1.31675e-05 1.88931e-07 -6.22544e-06)
(1.51141e-06 1.85658e-07 -1.03504e-05)
(2.18077e-07 2.18094e-07 -9.74405e-06)
(3.28263e-08 2.29139e-07 -9.66896e-06)
(5.93698e-09 2.30069e-07 -9.67109e-06)
(2.49843e-09 2.30988e-07 -9.6719e-06)
(1.77702e-09 2.31213e-07 -9.672e-06)
(1.39173e-09 2.30754e-07 -9.672e-06)
(1.09445e-09 2.30895e-07 -9.67198e-06)
(9.05655e-10 2.31047e-07 -9.67188e-06)
(5.3913e-10 2.30848e-07 -9.67185e-06)
(4.07899e-10 2.31309e-07 -9.67245e-06)
(4.06219e-10 2.31557e-07 -9.67195e-06)
(-2.90965e-11 2.30945e-07 -9.67185e-06)
(8.04171e-13 2.306e-07 -9.6724e-06)
(1.41303e-10 2.31072e-07 -9.6719e-06)
(-2.77691e-10 2.30951e-07 -9.67188e-06)
(-5.02009e-10 2.30034e-07 -9.67208e-06)
(-5.74997e-10 2.32621e-07 -9.67255e-06)
(-6.09764e-10 2.3107e-07 -9.67251e-06)
(-6.34196e-10 2.31068e-07 -9.67254e-06)
(-9.01377e-10 2.30932e-07 -9.67194e-06)
(-1.37876e-09 2.30887e-07 -9.67197e-06)
(-1.80206e-09 2.3124e-07 -9.67195e-06)
(-2.37162e-09 2.31753e-07 -9.67192e-06)
(-6.10746e-09 2.3101e-07 -9.67103e-06)
(-3.30141e-08 2.29506e-07 -9.6698e-06)
(-2.17921e-07 2.17648e-07 -9.74412e-06)
(-1.51142e-06 1.855e-07 -1.03504e-05)
(-1.3168e-05 1.9018e-07 -6.22537e-06)
(1.31925e-05 1.16549e-07 -6.2184e-06)
(1.51748e-06 1.13622e-07 -1.03507e-05)
(2.20733e-07 1.34224e-07 -9.74299e-06)
(3.34289e-08 1.4166e-07 -9.6677e-06)
(6.047e-09 1.42754e-07 -9.67026e-06)
(2.64361e-09 1.42775e-07 -9.67076e-06)
(1.76147e-09 1.43004e-07 -9.67076e-06)
(1.35991e-09 1.42772e-07 -9.67079e-06)
(1.0867e-09 1.42893e-07 -9.67078e-06)
(8.79319e-10 1.43061e-07 -9.67067e-06)
(5.26336e-10 1.42715e-07 -9.67072e-06)
(4.60776e-10 1.42483e-07 -9.67088e-06)
(4.24925e-10 1.43237e-07 -9.67059e-06)
(5.80833e-12 1.42936e-07 -9.67063e-06)
(9.34948e-12 1.43294e-07 -9.67113e-06)
(8.83523e-11 1.43038e-07 -9.67057e-06)
(-4.01873e-10 1.43008e-07 -9.67056e-06)
(-4.27659e-10 1.42923e-07 -9.67118e-06)
(-3.59973e-10 1.43919e-07 -9.67109e-06)
(-7.48816e-10 1.43628e-07 -9.67114e-06)
(-7.31858e-10 1.43491e-07 -9.67124e-06)
(-8.28293e-10 1.42599e-07 -9.67089e-06)
(-1.34536e-09 1.42912e-07 -9.67073e-06)
(-1.74877e-09 1.43028e-07 -9.67069e-06)
(-2.40289e-09 1.4331e-07 -9.67057e-06)
(-6.36173e-09 1.42601e-07 -9.66985e-06)
(-3.38106e-08 1.41544e-07 -9.66857e-06)
(-2.20521e-07 1.33335e-07 -9.74299e-06)
(-1.51724e-06 1.13521e-07 -1.03507e-05)
(-1.31931e-05 1.16792e-07 -6.21799e-06)
(1.32072e-05 6.94895e-08 -6.21411e-06)
(1.52078e-06 6.69068e-08 -1.03509e-05)
(2.22459e-07 7.94077e-08 -9.7423e-06)
(3.4034e-08 8.41526e-08 -9.66683e-06)
(6.10436e-09 8.52168e-08 -9.66935e-06)
(2.57279e-09 8.45389e-08 -9.67018e-06)
(1.77009e-09 8.49257e-08 -9.66999e-06)
(1.34253e-09 8.48352e-08 -9.67003e-06)
(1.08888e-09 8.49332e-08 -9.67001e-06)
(8.4571e-10 8.49925e-08 -9.66981e-06)
(4.28402e-10 8.45437e-08 -9.67015e-06)
(5.13544e-10 8.51237e-08 -9.67033e-06)
(5.19608e-10 8.51328e-08 -9.6698e-06)
(-2.64841e-11 8.49591e-08 -9.66988e-06)
(1.44447e-11 8.44179e-08 -9.67035e-06)
(1.18491e-10 8.48922e-08 -9.66968e-06)
(-2.96677e-10 8.50099e-08 -9.66966e-06)
(-3.80504e-10 8.58156e-08 -9.67014e-06)
(-4.46331e-10 8.55473e-08 -9.66991e-06)
(-6.61366e-10 8.47131e-08 -9.67031e-06)
(-7.86997e-10 8.6153e-08 -9.67003e-06)
(-9.58081e-10 8.40975e-08 -9.67008e-06)
(-1.29787e-09 8.49834e-08 -9.66988e-06)
(-1.72358e-09 8.49066e-08 -9.66994e-06)
(-2.45909e-09 8.51079e-08 -9.66979e-06)
(-6.4598e-09 8.40852e-08 -9.669e-06)
(-3.43927e-08 8.52288e-08 -9.66755e-06)
(-2.22321e-07 7.93896e-08 -9.74263e-06)
(-1.52053e-06 6.67984e-08 -1.03508e-05)
(-1.32072e-05 6.8991e-08 -6.21368e-06)
(1.32152e-05 3.5652e-08 -6.21167e-06)
(1.52269e-06 3.49891e-08 -1.0351e-05)
(2.23491e-07 4.16994e-08 -9.74192e-06)
(3.43437e-08 4.42397e-08 -9.66626e-06)
(6.07079e-09 4.38446e-08 -9.66922e-06)
(2.61894e-09 4.38787e-08 -9.66971e-06)
(1.81934e-09 4.47025e-08 -9.66956e-06)
(1.33638e-09 4.46924e-08 -9.6696e-06)
(1.06916e-09 4.476e-08 -9.66958e-06)
(7.78366e-10 4.46972e-08 -9.66951e-06)
(5.59584e-10 4.3934e-08 -9.66968e-06)
(5.85821e-10 4.56189e-08 -9.66962e-06)
(4.07569e-10 4.49029e-08 -9.66931e-06)
(-1.49941e-10 4.47908e-08 -9.66944e-06)
(-1.66674e-11 4.47516e-08 -9.67012e-06)
(2.2321e-10 4.44977e-08 -9.66948e-06)
(-2.1024e-10 4.47715e-08 -9.66932e-06)
(-3.27349e-10 4.51716e-08 -9.66973e-06)
(-5.70362e-10 4.50468e-08 -9.66925e-06)
(-6.22902e-10 4.50671e-08 -9.67e-06)
(-8.27134e-10 4.53453e-08 -9.6695e-06)
(-1.02519e-09 4.46158e-08 -9.67005e-06)
(-1.19605e-09 4.47599e-08 -9.66933e-06)
(-1.71481e-09 4.45761e-08 -9.6696e-06)
(-2.57324e-09 4.48285e-08 -9.66935e-06)
(-6.37867e-09 4.46121e-08 -9.66891e-06)
(-3.44457e-08 4.55712e-08 -9.66678e-06)
(-2.23515e-07 4.25599e-08 -9.74203e-06)
(-1.52251e-06 3.47671e-08 -1.0351e-05)
(-1.32152e-05 3.62176e-08 -6.2113e-06)
(1.32186e-05 1.13899e-08 -6.21059e-06)
(1.52368e-06 1.08476e-08 -1.0351e-05)
(2.2395e-07 1.29428e-08 -9.74177e-06)
(3.43194e-08 1.36308e-08 -9.6662e-06)
(6.00427e-09 1.32347e-08 -9.66916e-06)
(2.77175e-09 1.38932e-08 -9.66984e-06)
(1.93542e-09 1.38762e-08 -9.66938e-06)
(1.3376e-09 1.38967e-08 -9.66941e-06)
(1.05595e-09 1.39302e-08 -9.66939e-06)
(6.54632e-10 1.39061e-08 -9.6694e-06)
(6.12412e-10 1.39198e-08 -9.66981e-06)
(7.10396e-10 1.41814e-08 -9.66954e-06)
(3.6949e-10 1.38927e-08 -9.66902e-06)
(-6.97739e-11 1.3971e-08 -9.66925e-06)
(-5.70861e-11 1.44609e-08 -9.66977e-06)
(1.34526e-10 1.35016e-08 -9.66959e-06)
(-1.49368e-10 1.3895e-08 -9.66908e-06)
(-3.12665e-10 1.40447e-08 -9.66933e-06)
(-4.676e-10 1.40134e-08 -9.66917e-06)
(-6.05574e-10 1.4908e-08 -9.66945e-06)
(-8.58248e-10 1.41495e-08 -9.66924e-06)
(-1.05295e-09 1.43953e-08 -9.66977e-06)
(-1.28788e-09 1.38756e-08 -9.66927e-06)
(-1.69228e-09 1.35262e-08 -9.6696e-06)
(-2.46559e-09 1.39397e-08 -9.66915e-06)
(-6.35136e-09 1.43998e-08 -9.66855e-06)
(-3.46195e-08 1.41653e-08 -9.6665e-06)
(-2.24132e-07 1.33924e-08 -9.74192e-06)
(-1.52341e-06 1.03191e-08 -1.03513e-05)
(-1.32187e-05 1.12451e-08 -6.21029e-06)
(1.32188e-05 -1.03627e-08 -6.2104e-06)
(1.5235e-06 -1.08966e-08 -1.0351e-05)
(2.23929e-07 -1.30519e-08 -9.74175e-06)
(3.434e-08 -1.3982e-08 -9.66627e-06)
(6.14669e-09 -1.31146e-08 -9.66908e-06)
(2.74671e-09 -1.31427e-08 -9.66953e-06)
(1.82464e-09 -1.4035e-08 -9.66938e-06)
(1.34103e-09 -1.39982e-08 -9.6694e-06)
(1.05607e-09 -1.39797e-08 -9.66939e-06)
(7.5716e-10 -1.39661e-08 -9.66941e-06)
(5.99668e-10 -1.31845e-08 -9.66952e-06)
(5.75536e-10 -1.42216e-08 -9.66957e-06)
(3.77562e-10 -1.42611e-08 -9.66923e-06)
(-3.61748e-11 -1.39455e-08 -9.66925e-06)
(-1.12941e-10 -1.4332e-08 -9.66976e-06)
(1.08157e-10 -1.47841e-08 -9.66957e-06)
(-9.36048e-11 -1.40946e-08 -9.66922e-06)
(-2.76677e-10 -1.41234e-08 -9.66933e-06)
(-4.10178e-10 -1.39205e-08 -9.66919e-06)
(-6.07987e-10 -1.35327e-08 -9.66949e-06)
(-9.09394e-10 -1.39264e-08 -9.66924e-06)
(-1.06347e-09 -1.43893e-08 -9.66977e-06)
(-1.3278e-09 -1.40014e-08 -9.66933e-06)
(-1.68783e-09 -1.48054e-08 -9.66956e-06)
(-2.40997e-09 -1.4041e-08 -9.66915e-06)
(-6.36892e-09 -1.44979e-08 -9.66843e-06)
(-3.46167e-08 -1.41463e-08 -9.6665e-06)
(-2.24327e-07 -1.27681e-08 -9.7417e-06)
(-1.52349e-06 -1.19866e-08 -1.03511e-05)
(-1.32184e-05 -1.12892e-08 -6.21033e-06)
(1.32154e-05 -3.61766e-08 -6.21181e-06)
(1.52259e-06 -3.50753e-08 -1.0351e-05)
(2.23438e-07 -4.18703e-08 -9.74192e-06)
(3.44086e-08 -4.47644e-08 -9.66653e-06)
(6.21992e-09 -4.38538e-08 -9.66895e-06)
(2.56179e-09 -4.43857e-08 -9.66976e-06)
(1.76522e-09 -4.4859e-08 -9.66959e-06)
(1.35062e-09 -4.48122e-08 -9.66958e-06)
(1.07344e-09 -4.47749e-08 -9.66959e-06)
(8.06172e-10 -4.47437e-08 -9.66955e-06)
(5.24893e-10 -4.44537e-08 -9.66976e-06)
(4.82689e-10 -4.56316e-08 -9.66969e-06)
(4.35371e-10 -4.53071e-08 -9.6697e-06)
(-6.8209e-11 -4.47337e-08 -9.66939e-06)
(-2.10345e-10 -4.45082e-08 -9.67004e-06)
(1.65444e-10 -4.46676e-08 -9.66997e-06)
(-2.41166e-11 -4.48924e-08 -9.66947e-06)
(-2.39487e-10 -4.52658e-08 -9.66973e-06)
(-3.61748e-10 -4.48425e-08 -9.66922e-06)
(-6.27292e-10 -4.46196e-08 -9.66951e-06)
(-1.01415e-09 -4.48768e-08 -9.66943e-06)
(-1.06336e-09 -4.46001e-08 -9.67006e-06)
(-1.34748e-09 -4.4767e-08 -9.66954e-06)
(-1.70006e-09 -4.47646e-08 -9.67006e-06)
(-2.4065e-09 -4.48609e-08 -9.66938e-06)
(-6.37865e-09 -4.48257e-08 -9.66889e-06)
(-3.43906e-08 -4.54776e-08 -9.66672e-06)
(-2.24101e-07 -4.15221e-08 -9.74172e-06)
(-1.52275e-06 -3.49993e-08 -1.03511e-05)
(-1.32143e-05 -3.62286e-08 -6.2114e-06)
(1.32073e-05 -6.98097e-08 -6.21389e-06)
(1.52073e-06 -6.69692e-08 -1.03509e-05)
(2.2236e-07 -7.96876e-08 -9.7424e-06)
(3.41242e-08 -8.50964e-08 -9.66708e-06)
(6.25945e-09 -8.52802e-08 -9.66918e-06)
(2.52046e-09 -8.48021e-08 -9.66999e-06)
(1.73895e-09 -8.50217e-08 -9.67004e-06)
(1.36308e-09 -8.49638e-08 -9.67003e-06)
(1.11331e-09 -8.49155e-08 -9.67002e-06)
(8.31501e-10 -8.49492e-08 -9.66978e-06)
(3.65465e-10 -8.48296e-08 -9.67001e-06)
(3.89925e-10 -8.50636e-08 -9.6704e-06)
(5.65078e-10 -8.58878e-08 -9.67013e-06)
(1.36505e-10 -8.49802e-08 -9.66969e-06)
(-7.26912e-11 -8.39429e-08 -9.67007e-06)
(1.72302e-11 -8.40428e-08 -9.66982e-06)
(-2.31507e-10 -8.50853e-08 -9.6699e-06)
(-2.30239e-10 -8.59202e-08 -9.67015e-06)
(-2.88837e-10 -8.52025e-08 -9.66964e-06)
(-6.31392e-10 -8.49244e-08 -9.66987e-06)
(-8.98759e-10 -8.52249e-08 -9.66986e-06)
(-1.04344e-09 -8.40837e-08 -9.67007e-06)
(-1.35554e-09 -8.48939e-08 -9.66996e-06)
(-1.70794e-09 -8.40797e-08 -9.67015e-06)
(-2.41742e-09 -8.50079e-08 -9.66984e-06)
(-6.43705e-09 -8.42516e-08 -9.66903e-06)
(-3.42172e-08 -8.51655e-08 -9.66731e-06)
(-2.22713e-07 -7.92962e-08 -9.74187e-06)
(-1.52085e-06 -6.57708e-08 -1.03509e-05)
(-1.32066e-05 -6.89757e-08 -6.21373e-06)
(1.31926e-05 -1.16737e-07 -6.2183e-06)
(1.51742e-06 -1.13615e-07 -1.03508e-05)
(2.20549e-07 -1.34674e-07 -9.74332e-06)
(3.35553e-08 -1.41743e-07 -9.66819e-06)
(6.27321e-09 -1.42718e-07 -9.67019e-06)
(2.60878e-09 -1.42914e-07 -9.67069e-06)
(1.74173e-09 -1.42978e-07 -9.67084e-06)
(1.37901e-09 -1.42877e-07 -9.67082e-06)
(1.14772e-09 -1.42843e-07 -9.67077e-06)
(8.3798e-10 -1.42987e-07 -9.67042e-06)
(4.24116e-10 -1.42901e-07 -9.6707e-06)
(2.5701e-10 -1.42273e-07 -9.67086e-06)
(4.54372e-10 -1.42975e-07 -9.67115e-06)
(3.1562e-10 -1.42995e-07 -9.67057e-06)
(9.23975e-12 -1.42424e-07 -9.6709e-06)
(-5.77489e-11 -1.42618e-07 -9.6706e-06)
(-4.10095e-10 -1.43129e-07 -9.67068e-06)
(-2.43299e-10 -1.43019e-07 -9.6712e-06)
(-1.61565e-10 -1.43189e-07 -9.67062e-06)
(-6.26798e-10 -1.42952e-07 -9.67065e-06)
(-8.49716e-10 -1.43501e-07 -9.67075e-06)
(-1.00929e-09 -1.42628e-07 -9.67085e-06)
(-1.35327e-09 -1.42853e-07 -9.67072e-06)
(-1.72165e-09 -1.42456e-07 -9.67097e-06)
(-2.43551e-09 -1.42993e-07 -9.67062e-06)
(-6.35525e-09 -1.42713e-07 -9.66991e-06)
(-3.37139e-08 -1.41415e-07 -9.6684e-06)
(-2.20731e-07 -1.34127e-07 -9.7427e-06)
(-1.5174e-06 -1.13004e-07 -1.0351e-05)
(-1.31928e-05 -1.16779e-07 -6.21799e-06)
(1.31674e-05 -1.89047e-07 -6.22543e-06)
(1.51134e-06 -1.85561e-07 -1.03503e-05)
(2.18041e-07 -2.18839e-07 -9.7443e-06)
(3.29659e-08 -2.28391e-07 -9.66913e-06)
(6.01172e-09 -2.29948e-07 -9.67112e-06)
(2.49506e-09 -2.31065e-07 -9.67189e-06)
(1.76747e-09 -2.30979e-07 -9.67208e-06)
(1.3986e-09 -2.30812e-07 -9.67205e-06)
(1.17255e-09 -2.30798e-07 -9.67197e-06)
(8.276e-10 -2.30992e-07 -9.67156e-06)
(4.22319e-10 -2.31003e-07 -9.67189e-06)
(3.52297e-10 -2.30846e-07 -9.67216e-06)
(4.09087e-10 -2.30171e-07 -9.67204e-06)
(2.3896e-10 -2.3095e-07 -9.67187e-06)
(2.9344e-11 -2.3066e-07 -9.67198e-06)
(-1.01491e-10 -2.30855e-07 -9.67186e-06)
(-3.02564e-10 -2.31294e-07 -9.67202e-06)
(-2.39164e-10 -2.30136e-07 -9.67212e-06)
(-2.62557e-10 -2.31095e-07 -9.67197e-06)
(-6.58812e-10 -2.30974e-07 -9.67188e-06)
(-8.40638e-10 -2.32043e-07 -9.67232e-06)
(-9.51181e-10 -2.31036e-07 -9.67188e-06)
(-1.33704e-09 -2.30841e-07 -9.67194e-06)
(-1.74218e-09 -2.30619e-07 -9.67201e-06)
(-2.46273e-09 -2.31058e-07 -9.67183e-06)
(-6.11451e-09 -2.31072e-07 -9.67109e-06)
(-3.29435e-08 -2.28974e-07 -9.66935e-06)
(-2.18044e-07 -2.1781e-07 -9.74385e-06)
(-1.51152e-06 -1.85222e-07 -1.03505e-05)
(-1.31679e-05 -1.90192e-07 -6.22533e-06)
(1.31241e-05 -3.04345e-07 -6.23767e-06)
(1.50143e-06 -2.99604e-07 -1.0349e-05)
(2.1423e-07 -3.4897e-07 -9.74583e-06)
(3.20818e-08 -3.65031e-07 -9.67094e-06)
(5.78473e-09 -3.67224e-07 -9.67296e-06)
(2.46137e-09 -3.68041e-07 -9.67364e-06)
(1.81964e-09 -3.67669e-07 -9.6738e-06)
(1.41728e-09 -3.67469e-07 -9.67374e-06)
(1.18517e-09 -3.67482e-07 -9.67364e-06)
(8.02433e-10 -3.67675e-07 -9.6732e-06)
(3.93075e-10 -3.67867e-07 -9.67363e-06)
(3.88139e-10 -3.68018e-07 -9.67376e-06)
(3.96824e-10 -3.67443e-07 -9.67385e-06)
(2.17595e-10 -3.67691e-07 -9.67359e-06)
(4.11244e-11 -3.67456e-07 -9.67364e-06)
(-1.4796e-10 -3.67571e-07 -9.67364e-06)
(-2.43538e-10 -3.68361e-07 -9.67398e-06)
(-2.05294e-10 -3.67276e-07 -9.67391e-06)
(-3.06855e-10 -3.67739e-07 -9.67374e-06)
(-7.47998e-10 -3.67701e-07 -9.67358e-06)
(-8.64154e-10 -3.69688e-07 -9.67424e-06)
(-8.48423e-10 -3.6817e-07 -9.67356e-06)
(-1.30153e-09 -3.67533e-07 -9.67366e-06)
(-1.77443e-09 -3.67389e-07 -9.67364e-06)
(-2.5074e-09 -3.67942e-07 -9.67355e-06)
(-5.97995e-09 -3.68221e-07 -9.67301e-06)
(-3.19141e-08 -3.65149e-07 -9.67108e-06)
(-2.14043e-07 -3.48838e-07 -9.74527e-06)
(-1.50175e-06 -2.99205e-07 -1.03494e-05)
(-1.31245e-05 -3.05148e-07 -6.23743e-06)
(1.30499e-05 -4.85847e-07 -6.25688e-06)
(1.48573e-06 -4.82162e-07 -1.03468e-05)
(2.08713e-07 -5.55269e-07 -9.74693e-06)
(3.05734e-08 -5.79367e-07 -9.67283e-06)
(5.53986e-09 -5.8222e-07 -9.67487e-06)
(2.48036e-09 -5.83094e-07 -9.67586e-06)
(1.90672e-09 -5.82195e-07 -9.67576e-06)
(1.42204e-09 -5.82035e-07 -9.67578e-06)
(1.1768e-09 -5.82115e-07 -9.67566e-06)
(7.60011e-10 -5.82274e-07 -9.6753e-06)
(3.57987e-10 -5.82743e-07 -9.67586e-06)
(4.06546e-10 -5.83155e-07 -9.67599e-06)
(3.95767e-10 -5.82439e-07 -9.67579e-06)
(2.23012e-10 -5.82427e-07 -9.67565e-06)
(6.88018e-11 -5.82083e-07 -9.6757e-06)
(-2.22229e-10 -5.82128e-07 -9.67571e-06)
(-2.13051e-10 -5.8358e-07 -9.67596e-06)
(-1.22678e-10 -5.8208e-07 -9.6758e-06)
(-3.2987e-10 -5.82285e-07 -9.67584e-06)
(-9.28333e-10 -5.82316e-07 -9.67563e-06)
(-9.11094e-10 -5.8408e-07 -9.6764e-06)
(-6.68611e-10 -5.83318e-07 -9.67583e-06)
(-1.24886e-09 -5.8211e-07 -9.67573e-06)
(-1.82653e-09 -5.82011e-07 -9.67568e-06)
(-2.57586e-09 -5.82905e-07 -9.67576e-06)
(-5.66899e-09 -5.83471e-07 -9.67498e-06)
(-3.0429e-08 -5.78977e-07 -9.67303e-06)
(-2.08581e-07 -5.56031e-07 -9.74682e-06)
(-1.48597e-06 -4.8167e-07 -1.03469e-05)
(-1.305e-05 -4.86661e-07 -6.25703e-06)
(1.29253e-05 -7.73076e-07 -6.28837e-06)
(1.46131e-06 -7.76261e-07 -1.03425e-05)
(2.01103e-07 -8.84894e-07 -9.74893e-06)
(2.86816e-08 -9.17584e-07 -9.67571e-06)
(5.2624e-09 -9.2105e-07 -9.6777e-06)
(2.54578e-09 -9.22295e-07 -9.67914e-06)
(2.03071e-09 -9.20655e-07 -9.67844e-06)
(1.41194e-09 -9.20443e-07 -9.67862e-06)
(1.13957e-09 -9.20653e-07 -9.67858e-06)
(6.94686e-10 -9.20583e-07 -9.67849e-06)
(3.3327e-10 -9.21616e-07 -9.6791e-06)
(4.21868e-10 -9.22333e-07 -9.67937e-06)
(3.86528e-10 -9.21308e-07 -9.67879e-06)
(2.4278e-10 -9.21106e-07 -9.67855e-06)
(1.21827e-10 -9.20536e-07 -9.67856e-06)
(-3.47905e-10 -9.20491e-07 -9.67856e-06)
(-1.97933e-10 -9.21155e-07 -9.6789e-06)
(3.90816e-11 -9.20582e-07 -9.67862e-06)
(-3.39532e-10 -9.20624e-07 -9.67872e-06)
(-9.52031e-10 -9.20743e-07 -9.6785e-06)
(-9.68523e-10 -9.20934e-07 -9.67917e-06)
(-6.63695e-10 -9.22587e-07 -9.67928e-06)
(-1.18672e-09 -9.20508e-07 -9.67859e-06)
(-1.9024e-09 -9.20449e-07 -9.67855e-06)
(-2.69622e-09 -9.21948e-07 -9.67904e-06)
(-5.43158e-09 -9.21063e-07 -9.67785e-06)
(-2.8493e-08 -9.17925e-07 -9.67595e-06)
(-2.00929e-07 -8.84962e-07 -9.74889e-06)
(-1.46152e-06 -7.75765e-07 -1.03424e-05)
(-1.2925e-05 -7.74191e-07 -6.28894e-06)
(1.27242e-05 -1.22829e-06 -6.34383e-06)
(1.42559e-06 -1.25135e-06 -1.03402e-05)
(1.90811e-07 -1.40762e-06 -9.75732e-06)
(2.63152e-08 -1.45185e-06 -9.68531e-06)
(4.94936e-09 -1.45582e-06 -9.68709e-06)
(2.62465e-09 -1.45778e-06 -9.68863e-06)
(2.17368e-09 -1.45487e-06 -9.68801e-06)
(1.43896e-09 -1.45473e-06 -9.68801e-06)
(1.11548e-09 -1.45518e-06 -9.68823e-06)
(5.93224e-10 -1.4546e-06 -9.68799e-06)
(2.7716e-10 -1.4565e-06 -9.68826e-06)
(4.42258e-10 -1.45768e-06 -9.68873e-06)
(3.6721e-10 -1.45623e-06 -9.68853e-06)
(2.66837e-10 -1.4558e-06 -9.68808e-06)
(1.95318e-10 -1.45489e-06 -9.68789e-06)
(-2.40288e-10 -1.45475e-06 -9.68788e-06)
(-1.77144e-10 -1.45481e-06 -9.68815e-06)
(1.30486e-11 -1.45485e-06 -9.68797e-06)
(-3.40575e-10 -1.45471e-06 -9.68784e-06)
(-8.39586e-10 -1.45506e-06 -9.68789e-06)
(-1.04134e-09 -1.45547e-06 -9.68875e-06)
(-8.3109e-10 -1.45823e-06 -9.68891e-06)
(-1.11231e-09 -1.45475e-06 -9.68792e-06)
(-1.99651e-09 -1.45474e-06 -9.68792e-06)
(-2.6185e-09 -1.45718e-06 -9.68849e-06)
(-5.21943e-09 -1.45467e-06 -9.68675e-06)
(-2.62755e-08 -1.45072e-06 -9.68515e-06)
(-1.90595e-07 -1.40727e-06 -9.75703e-06)
(-1.42583e-06 -1.25077e-06 -1.03399e-05)
(-1.27234e-05 -1.22986e-06 -6.34398e-06)
(1.24199e-05 -1.9491e-06 -6.45416e-06)
(1.37753e-06 -2.01606e-06 -1.03624e-05)
(1.77418e-07 -2.23437e-06 -9.79662e-06)
(2.33509e-08 -2.29375e-06 -9.72663e-06)
(4.61368e-09 -2.2979e-06 -9.72814e-06)
(2.7698e-09 -2.29871e-06 -9.73012e-06)
(2.38487e-09 -2.296e-06 -9.72906e-06)
(1.48535e-09 -2.29621e-06 -9.7292e-06)
(1.10574e-09 -2.29712e-06 -9.72991e-06)
(3.8866e-10 -2.29567e-06 -9.72877e-06)
(1.24316e-10 -2.29643e-06 -9.72899e-06)
(4.94222e-10 -2.29834e-06 -9.72877e-06)
(3.9486e-10 -2.29849e-06 -9.72919e-06)
(2.9542e-10 -2.29793e-06 -9.72954e-06)
(2.67349e-10 -2.2965e-06 -9.72891e-06)
(-1.60921e-10 -2.29626e-06 -9.72888e-06)
(-1.35291e-10 -2.29755e-06 -9.73001e-06)