/*--------------------------------*- C++ -*----------------------------------*\
| =========                 |                                                 |
| \\      /  F ield         | OpenFOAM: The Open Source CFD Toolbox           |
|  \\    /   O peration     | Version:  2106                                  |
|   \\  /    A nd           | Website:  www.openfoam.com                      |
|    \\/     M anipulation  |                                                 |
\*---------------------------------------------------------------------------*/
FoamFile
{
    version     2.0;
    format      ascii;
    arch        "LSB;label=32;scalar=64";
    class       volSymmTensorField;
    location    "973";
    object      epsilon;
}
// * * * * * * * * * * * * * * * * * * * * * * * * * * * * * * * * * * * * * //

dimensions      [0 0 0 0 0 0 0];

internalField   nonuniform List<symmTensor> 
9000
(
(-0.0855804 -0.000263479 0.0481617 -0.147115 0.0614066 -0.025375)
(-0.0167731 0.000537839 0.00938359 -0.156475 0.0651284 -0.0697521)
(-0.00192933 0.000335759 0.00256538 -0.166386 0.0691564 -0.0595164)
(-0.000321096 5.06364e-05 0.000451207 -0.167998 0.0700452 -0.0573943)
(-5.53385e-05 -7.94892e-06 3.92897e-05 -0.168079 0.0700718 -0.0574066)
(-3.86205e-06 -2.05983e-06 1.72401e-05 -0.167897 0.0698601 -0.0576811)
(-1.28357e-06 -3.7647e-08 2.52217e-05 -0.168021 0.0700235 -0.0575666)
(7.40204e-08 -5.91765e-06 7.56869e-06 -0.167889 0.0698611 -0.0576816)
(-9.09588e-07 6.4496e-06 3.11741e-05 -0.167887 0.0698578 -0.0576891)
(-6.54754e-06 6.62753e-06 -7.52937e-06 -0.168061 0.0700452 -0.0574709)
(2.43103e-06 -6.26718e-06 -4.90912e-05 -0.167943 0.069928 -0.057598)
(7.8639e-06 -5.40033e-07 3.97249e-05 -0.167761 0.0697374 -0.0578377)
(-4.59077e-06 5.45216e-06 5.89375e-05 -0.16805 0.0700333 -0.0574993)
(-4.35826e-06 8.29001e-07 -3.0183e-05 -0.168067 0.0700421 -0.0574878)
(3.4244e-06 8.63105e-07 1.85812e-06 -0.167955 0.0699368 -0.057582)
(-2.63326e-06 -1.18607e-06 3.04784e-05 -0.168064 0.0700469 -0.0574729)
(-2.17107e-06 3.39432e-07 -3.63194e-05 -0.168066 0.0700412 -0.0574926)
(2.7539e-09 7.56574e-07 -3.12899e-06 -0.167959 0.069939 -0.0575731)
(-2.16453e-06 -6.66471e-06 -2.48103e-05 -0.168053 0.0700387 -0.0574872)
(4.6629e-06 -6.37376e-06 -2.66322e-05 -0.167773 0.0697469 -0.0578016)
(2.77522e-06 5.82174e-06 3.97907e-05 -0.167874 0.069851 -0.0577145)
(-5.67475e-06 6.54026e-06 6.91548e-06 -0.16806 0.070039 -0.0574851)
(-3.46633e-06 -5.87772e-06 -3.18555e-05 -0.168065 0.0700481 -0.0574671)
(1.28284e-07 -8.0931e-07 -2.62792e-05 -0.167901 0.0698655 -0.0576676)
(-7.73629e-06 1.65931e-06 -2.38431e-05 -0.168053 0.0700336 -0.0574939)
(-5.38707e-05 1.93947e-06 -9.27708e-05 -0.167913 0.0698908 -0.0576036)
(-0.000314526 -4.56901e-05 -0.000439556 -0.167868 0.0699204 -0.0575372)
(-0.00192993 -0.000335536 -0.00252763 -0.166381 0.0691448 -0.0595431)
(-0.016776 -0.000536892 -0.0093819 -0.156473 0.0651273 -0.0697537)
(-0.0855797 0.000263407 -0.0481627 -0.147115 0.0614021 -0.0253805)
(-0.0724032 -1.12506e-05 0.0464784 -0.0980711 0.068182 -0.128992)
(-0.0163972 0.00068255 0.00802438 -0.103197 0.0717478 -0.175005)
(-0.00180222 0.000432684 0.00154199 -0.109234 0.0762341 -0.17132)
(-0.000206436 7.0968e-05 0.000229011 -0.110401 0.077392 -0.170637)
(-2.73443e-05 -6.32144e-06 3.18522e-05 -0.110423 0.077425 -0.170683)
(-4.44417e-06 -3.26721e-06 3.09106e-05 -0.110203 0.0773582 -0.170699)
(-2.04801e-06 5.05747e-07 2.55485e-05 -0.11037 0.0773693 -0.17071)
(-1.44979e-06 -1.71475e-06 -2.83232e-06 -0.110179 0.0773628 -0.170696)
(-7.35326e-07 2.06241e-06 3.41248e-05 -0.11018 0.0773558 -0.170702)
(-1.19103e-06 7.22158e-06 3.3791e-05 -0.110394 0.0773821 -0.170707)
(-4.54404e-07 3.3215e-06 -1.14791e-05 -0.110296 0.077557 -0.170677)
(8.63385e-08 -5.88602e-06 4.34535e-06 -0.110076 0.0775215 -0.170667)
(-1.08538e-06 -6.9864e-06 2.37815e-05 -0.110393 0.0773645 -0.17071)
(-7.99763e-07 6.3095e-06 1.80096e-06 -0.11037 0.0772293 -0.170691)
(1.18938e-07 3.7528e-06 -1.46621e-06 -0.110309 0.0775704 -0.17068)
(-3.79417e-07 -9.01422e-06 -2.07141e-06 -0.110397 0.0773865 -0.17071)
(-2.43781e-07 5.16561e-06 -8.3646e-07 -0.110368 0.0772283 -0.170693)
(-1.77391e-07 3.80472e-06 -3.49425e-06 -0.110313 0.0775717 -0.170675)
(-7.60805e-07 -2.15028e-06 -2.46569e-05 -0.110384 0.0773724 -0.17071)
(-7.80052e-07 -1.92202e-06 -2.79205e-05 -0.110084 0.0775421 -0.170665)
(-7.77803e-07 -4.15445e-06 4.77063e-06 -0.110164 0.0773434 -0.170691)
(-9.27887e-07 1.92502e-06 5.07192e-06 -0.110405 0.0773721 -0.170713)
(-1.0864e-06 -1.08316e-06 -3.74504e-05 -0.110397 0.0773873 -0.170708)
(-1.531e-06 -1.73765e-06 -2.26644e-05 -0.110196 0.0773658 -0.170693)
(-5.13464e-06 3.42167e-06 -2.86658e-05 -0.110398 0.0773624 -0.17071)
(-2.77032e-05 9.92955e-06 -5.03862e-05 -0.110214 0.0774081 -0.170668)
(-0.00020619 -7.34632e-05 -0.000208645 -0.110289 0.077555 -0.170606)
(-0.00180236 -0.000437657 -0.00154393 -0.109198 0.0760739 -0.171319)
(-0.0163972 -0.000679209 -0.00802696 -0.103195 0.0717458 -0.175003)
(-0.0724021 1.12239e-05 -0.0464789 -0.0980748 0.0681718 -0.128993)
(-0.0763045 0.00117273 0.0467451 -0.0575534 0.0581642 -0.153407)
(-0.0165231 0.000871473 0.00786414 -0.0602169 0.0606465 -0.201966)
(-0.00180447 0.000519537 0.00136732 -0.0633661 0.0647173 -0.199928)
(-0.000186594 9.82337e-05 0.000168736 -0.0641023 0.0658944 -0.199627)
(-1.85142e-05 -8.81156e-07 5.557e-05 -0.0641043 0.0659377 -0.199687)
(-4.64147e-06 -5.16002e-06 3.4341e-05 -0.0639985 0.0660471 -0.199647)
(-1.97478e-06 2.17839e-06 2.46788e-05 -0.0640745 0.0658764 -0.199696)
(-2.25385e-06 4.47953e-06 2.18787e-05 -0.063992 0.0661445 -0.199667)
(-1.48546e-06 -2.86238e-06 7.84674e-06 -0.0640004 0.0661371 -0.199671)
(1.19235e-06 -2.78344e-06 9.27188e-06 -0.0640767 0.0658973 -0.199701)
(-7.48877e-07 3.2162e-06 1.84953e-05 -0.0640651 0.065872 -0.199687)
(-3.42946e-06 -2.70112e-06 4.76129e-06 -0.0639771 0.0661184 -0.199649)
(-3.43284e-07 -3.4412e-06 -1.99235e-05 -0.0640561 0.0657869 -0.199657)
(1.35978e-06 3.84737e-06 5.92212e-07 -0.064008 0.0659 -0.199683)
(-9.45143e-07 5.23035e-07 1.20685e-05 -0.0640701 0.0658881 -0.199691)
(-1.25058e-07 -1.0648e-06 -1.70307e-05 -0.0640784 0.0659032 -0.199703)
(1.04038e-06 4.63553e-07 1.6246e-07 -0.0640077 0.0658988 -0.199686)
(2.97425e-07 2.84083e-07 1.15183e-05 -0.0640722 0.0658876 -0.199691)
(-4.14443e-07 2.33378e-06 2.78608e-06 -0.0640704 0.0658874 -0.1997)
(-3.10642e-06 2.80435e-06 -9.0678e-07 -0.0639811 0.0661236 -0.199653)
(-2.71863e-06 -5.5169e-06 -2.13805e-05 -0.0639825 0.0661383 -0.199657)
(1.09594e-06 -2.54049e-06 -2.32532e-05 -0.0640675 0.0657963 -0.199683)
(1.47766e-07 5.10344e-06 -1.28082e-05 -0.064077 0.0659044 -0.199702)
(-2.33545e-06 -3.96825e-06 -2.07538e-05 -0.0640112 0.0661443 -0.199667)
(-3.98491e-06 4.04426e-06 -2.94472e-05 -0.0640718 0.0657865 -0.199676)
(-2.02005e-05 4.63189e-06 -4.55531e-05 -0.0640241 0.0661855 -0.199649)
(-0.000188773 -0.000102368 -0.000188193 -0.0640794 0.065857 -0.199609)
(-0.00180353 -0.000519266 -0.00137415 -0.063293 0.0646977 -0.199916)
(-0.0165219 -0.000872007 -0.0078536 -0.0602148 0.0606446 -0.201963)
(-0.0763016 -0.00117252 -0.0467448 -0.0575627 0.0581515 -0.153408)
(-0.0818775 0.00181544 0.0483679 -0.0351662 0.0409082 -0.154296)
(-0.0170823 0.000880283 0.00813678 -0.0372327 0.0422663 -0.205378)
(-0.00186638 0.000494974 0.00148701 -0.0391078 0.0456081 -0.203493)
(-0.000206489 0.000100466 0.000189325 -0.0396308 0.0464868 -0.203202)
(-2.02873e-05 -7.62296e-07 4.0745e-05 -0.0396401 0.0465332 -0.203268)
(-3.76372e-06 -6.75947e-06 3.48916e-05 -0.0395809 0.0464299 -0.203235)
(-2.10342e-06 1.26274e-06 3.31486e-05 -0.0396051 0.0464174 -0.203264)
(-2.11471e-06 1.53642e-06 1.88509e-05 -0.0396222 0.0465017 -0.203286)
(-1.06431e-06 4.93683e-07 1.24113e-05 -0.0396165 0.0464281 -0.203248)
(7.51227e-07 3.28265e-07 1.16668e-05 -0.0396145 0.0465012 -0.20328)
(-1.26724e-06 -1.9942e-06 1.47289e-05 -0.0396095 0.0464877 -0.203277)
(-2.99467e-06 7.50508e-07 -4.51617e-06 -0.039614 0.0464789 -0.203254)
(2.26564e-07 5.94687e-06 -3.54335e-06 -0.0395689 0.0465019 -0.20326)
(9.06474e-07 1.03655e-06 1.0455e-05 -0.0395899 0.0466667 -0.203286)
(-1.09163e-06 -3.47563e-06 -7.4806e-07 -0.0396074 0.0465019 -0.203279)
(5.07457e-08 4.10253e-06 -3.82996e-06 -0.0396158 0.0465075 -0.203284)
(8.42257e-07 -6.05811e-07 -2.58129e-07 -0.0395907 0.0466654 -0.203289)
(8.33878e-09 -4.23284e-06 -3.14548e-07 -0.0396076 0.0465016 -0.20328)
(-6.84541e-07 -1.5665e-06 -1.47414e-06 -0.0396114 0.046492 -0.203258)
(-2.75439e-06 -7.48739e-07 -5.72955e-06 -0.0396159 0.0464898 -0.20328)
(-2.21461e-06 1.1225e-06 -2.62576e-05 -0.0396177 0.0464914 -0.203261)
(9.57122e-07 1.58366e-06 -1.97042e-05 -0.0395798 0.0464961 -0.203252)
(-3.02381e-07 -1.2521e-06 -6.68317e-06 -0.0396122 0.0465102 -0.203284)
(-2.21547e-06 -3.83541e-06 -3.01382e-05 -0.0396215 0.0464324 -0.20327)
(-3.10559e-06 4.86019e-06 -2.99118e-05 -0.0395743 0.0464201 -0.203228)
(-2.15015e-05 1.89672e-07 -3.43738e-05 -0.0396476 0.0465319 -0.203264)
(-0.000208597 -9.77051e-05 -0.000190949 -0.0396171 0.0464611 -0.203192)
(-0.00186625 -0.000492528 -0.00149456 -0.0390838 0.0457505 -0.203466)
(-0.0170804 -0.000885632 -0.00814043 -0.0372312 0.0422648 -0.205375)
(-0.0818817 -0.00181474 -0.0483659 -0.0351567 0.0408314 -0.154282)
(-0.086058 0.00177845 0.0503682 -0.0220578 0.0263834 -0.152289)
(-0.017767 0.000770774 0.00855063 -0.023578 0.0267734 -0.205729)
(-0.00194989 0.000412508 0.00165826 -0.0249318 0.0293915 -0.203766)
(-0.000234358 8.63255e-05 0.000209738 -0.025287 0.0299606 -0.203434)
(-2.56089e-05 5.3965e-06 3.98127e-05 -0.0252881 0.0299507 -0.203494)
(-3.44747e-06 -4.73205e-06 2.34691e-05 -0.0252439 0.030095 -0.203526)
(-1.73476e-06 -2.84127e-06 3.20191e-05 -0.0252444 0.029918 -0.203504)
(-1.86601e-06 2.22938e-06 1.77083e-05 -0.025282 0.0299927 -0.203529)
(-5.71719e-07 -1.63054e-07 1.36502e-05 -0.0252557 0.029994 -0.203517)
(6.41932e-08 -2.21204e-06 2.11245e-05 -0.0252848 0.0299823 -0.203503)
(-1.4608e-06 -2.07608e-06 1.23091e-05 -0.0252666 0.0299214 -0.203507)
(-2.20533e-06 3.96599e-06 3.67638e-06 -0.0252823 0.0299824 -0.203512)
(5.49379e-08 4.92135e-06 -2.5724e-06 -0.0252721 0.03008 -0.203531)
(5.93684e-07 -1.2136e-06 2.29057e-06 -0.0252993 0.0300079 -0.203527)
(-1.01164e-06 -2.14038e-06 7.84707e-07 -0.0252769 0.0299858 -0.203521)
(-9.65671e-08 2.5443e-06 -4.54118e-06 -0.0252873 0.0299872 -0.203522)
(7.97436e-07 -3.29977e-07 -9.01089e-07 -0.0252999 0.0300067 -0.203529)
(-2.61876e-07 -3.4489e-06 9.8835e-07 -0.0252766 0.0299856 -0.203522)
(-1.01026e-06 -1.71881e-06 -3.42971e-06 -0.0252844 0.0299806 -0.203493)
(-1.90069e-06 -1.03671e-07 -7.65966e-06 -0.0252812 0.029985 -0.203524)
(-1.51916e-06 2.74925e-06 -1.45863e-05 -0.0252817 0.0299907 -0.203519)
(-1.95488e-08 1.88593e-06 -1.735e-05 -0.0252599 0.030031 -0.203519)
(-9.27625e-07 -1.14218e-06 -2.51173e-05 -0.0252786 0.0299907 -0.203525)
(-1.38793e-06 -9.92531e-07 -3.00902e-05 -0.0252633 0.0299899 -0.203518)
(-2.7818e-06 2.49364e-06 -1.98249e-05 -0.0252399 0.0300227 -0.203506)
(-2.65597e-05 -4.80417e-06 -3.49612e-05 -0.0253027 0.03001 -0.203503)
(-0.000235959 -8.64407e-05 -0.000211697 -0.0252853 0.0299427 -0.203423)
(-0.00194998 -0.000409631 -0.00166281 -0.0249488 0.0294053 -0.203761)
(-0.0177641 -0.000771891 -0.00856316 -0.0235773 0.0267718 -0.205727)
(-0.0860649 -0.00177648 -0.0503557 -0.0220258 0.0263736 -0.15228)
(-0.0887424 0.00139831 0.0521166 -0.0139501 0.0164665 -0.151263)
(-0.0183639 0.000609201 0.00895184 -0.0148823 0.0163778 -0.206543)
(-0.00203139 0.000319914 0.00181084 -0.0159393 0.0181855 -0.20448)
(-0.000259142 7.37382e-05 0.000232593 -0.0161925 0.0187143 -0.204176)
(-3.09867e-05 7.88217e-06 4.76414e-05 -0.0161812 0.0187551 -0.204246)
(-3.95244e-06 -2.50408e-06 2.95502e-05 -0.0161987 0.0188345 -0.204285)
(-1.37615e-06 -3.86396e-06 2.44825e-05 -0.0161535 0.0187604 -0.204265)
(-1.65301e-06 1.52727e-06 2.4634e-05 -0.0161935 0.0187482 -0.204273)
(-1.00041e-06 -1.67669e-06 1.35814e-05 -0.016186 0.0188191 -0.204284)
(-2.16517e-07 -2.87661e-06 5.42093e-06 -0.016186 0.0186965 -0.204259)
(-9.87736e-07 -1.64697e-06 1.10612e-05 -0.0161652 0.0187366 -0.204263)
(-1.55697e-06 1.31141e-07 1.09878e-05 -0.0161877 0.0186941 -0.204236)
(1.33538e-08 4.83956e-06 -5.87194e-07 -0.0162054 0.0187054 -0.204261)
(2.04117e-07 8.58614e-07 3.48895e-06 -0.0162058 0.0187608 -0.204271)
(-1.04172e-06 -2.54319e-06 9.40768e-07 -0.0161923 0.0187428 -0.204267)
(-1.36453e-07 1.85973e-06 -3.74977e-06 -0.0161898 0.0186963 -0.204258)
(4.87391e-07 8.13985e-07 -1.57069e-06 -0.0162058 0.0187592 -0.204273)
(-4.53325e-07 -4.25633e-06 -4.69667e-07 -0.0161917 0.0187436 -0.204269)
(-8.54601e-07 -1.48841e-06 -4.56464e-06 -0.0161893 0.0186942 -0.204237)
(-1.57223e-06 1.3425e-06 -7.69716e-06 -0.0161983 0.018742 -0.204268)
(-1.18939e-06 2.96379e-06 -2.18229e-05 -0.0162013 0.018745 -0.204248)
(1.49725e-07 1.89141e-06 -1.61365e-05 -0.0161824 0.0187549 -0.204271)
(-1.39465e-06 -4.03737e-07 -8.14512e-06 -0.0161924 0.0187468 -0.204273)
(-1.64754e-06 6.77212e-07 -3.12954e-05 -0.0161834 0.0187723 -0.204252)
(-2.81317e-06 4.27069e-07 -2.74396e-05 -0.0161746 0.0187744 -0.204266)
(-3.19056e-05 -8.27286e-06 -3.53189e-05 -0.0162119 0.0187567 -0.204246)
(-0.000260526 -7.23842e-05 -0.000243804 -0.0161881 0.0186554 -0.204135)
(-0.00203099 -0.000316628 -0.00181307 -0.0159478 0.0181944 -0.204496)
(-0.0183607 -0.000607748 -0.00895438 -0.0148821 0.0163764 -0.20654)
(-0.0887416 -0.00139737 -0.0521033 -0.0139376 0.0165319 -0.151266)
(-0.0903997 0.000964928 0.0534008 -0.00882049 0.0102386 -0.150983)
(-0.0188002 0.000448267 0.00928263 -0.00929852 0.00999137 -0.207535)
(-0.00209828 0.000237878 0.00192572 -0.0101 0.0113135 -0.20547)
(-0.000278725 5.83079e-05 0.000273518 -0.0103126 0.011668 -0.205148)
(-3.63059e-05 6.79875e-06 5.05223e-05 -0.01032 0.0117618 -0.205216)
(-4.51317e-06 -9.98682e-07 2.04778e-05 -0.0103372 0.0117193 -0.205249)
(-1.00171e-06 -2.69758e-06 2.42707e-05 -0.0103011 0.0117584 -0.205235)
(-1.70671e-06 -1.38801e-06 2.42037e-05 -0.0103185 0.0116985 -0.205248)
(-9.55191e-07 -2.59003e-07 5.78816e-06 -0.0103281 0.0117068 -0.20525)
(-2.71054e-07 -2.05543e-07 1.24747e-05 -0.0102966 0.0116963 -0.205245)
(-1.35039e-06 -1.77605e-06 9.62e-06 -0.0103066 0.0117501 -0.205253)
(-7.79927e-07 -1.75796e-06 -3.21053e-06 -0.0103018 0.011694 -0.205236)
(5.99707e-07 2.88412e-06 9.10566e-06 -0.0103026 0.0116621 -0.205231)
(-5.21255e-07 5.2553e-07 1.0749e-05 -0.0103253 0.0117065 -0.205244)
(-1.17714e-06 -9.01627e-07 -6.71379e-06 -0.0103181 0.0116948 -0.205243)
(1.80931e-07 1.44374e-06 -2.79562e-06 -0.0102996 0.0116954 -0.20524)
(-9.99328e-08 -3.86987e-07 5.48595e-06 -0.0103252 0.0117051 -0.205245)
(-7.43102e-07 -2.70603e-06 -1.00339e-05 -0.0103175 0.0116956 -0.205244)
(-2.43331e-07 -1.93487e-06 -5.05914e-06 -0.0103035 0.0116934 -0.205241)
(-1.02745e-06 -8.69212e-07 2.75404e-07 -0.0103139 0.011652 -0.205234)
(-1.05169e-06 4.81399e-06 -1.35272e-05 -0.0103209 0.0116576 -0.205217)
(-5.46619e-07 2.99925e-06 -1.48326e-05 -0.0103185 0.0117641 -0.205257)
(-1.74389e-06 -1.3154e-06 -2.35862e-05 -0.0103177 0.0116988 -0.205249)
(-1.10853e-06 2.02767e-06 -3.11989e-05 -0.0103102 0.011708 -0.205242)
(-3.40465e-06 -1.36421e-06 -1.88412e-05 -0.0103056 0.0117273 -0.205241)
(-3.67526e-05 -8.8074e-06 -4.55466e-05 -0.0103222 0.0116605 -0.20521)
(-0.000279537 -5.41456e-05 -0.000276109 -0.0103006 0.0116593 -0.205114)
(-0.00209817 -0.000235767 -0.00192167 -0.0101054 0.011317 -0.205465)
(-0.0187982 -0.000447803 -0.00928542 -0.00929965 0.00998927 -0.207529)
(-0.0903949 -0.00096623 -0.0533952 -0.00882738 0.0102504 -0.150988)
(-0.0914185 0.000613078 0.0542502 -0.00556864 0.00639927 -0.150959)
(-0.0190866 0.000311253 0.00954538 -0.00576946 0.00614848 -0.208326)
(-0.00214851 0.000172289 0.00201349 -0.00637942 0.00711486 -0.206271)
(-0.000293539 4.17427e-05 0.00028563 -0.00653794 0.00732581 -0.205942)
(-3.97668e-05 5.45734e-06 5.28108e-05 -0.00655948 0.00736365 -0.206008)
(-5.09906e-06 1.07194e-06 2.65641e-05 -0.00655815 0.00736603 -0.206042)
(-1.1824e-06 -1.9446e-06 2.25946e-05 -0.00655243 0.00741161 -0.206052)
(-1.38341e-06 -2.09996e-06 1.75212e-05 -0.00654599 0.00735205 -0.206045)
(-8.19217e-07 1.55183e-06 1.29503e-05 -0.00655166 0.00735852 -0.206046)
(-6.53459e-07 -2.72635e-07 1.18086e-05 -0.00653839 0.0074013 -0.206051)
(-1.35914e-06 -2.23489e-06 8.21638e-06 -0.0065497 0.00735578 -0.206044)
(-4.02887e-07 1.39488e-06 -2.96547e-06 -0.00653385 0.0073613 -0.206041)
(6.49646e-07 1.16845e-06 3.57598e-06 -0.0065272 0.00740508 -0.206043)
(-5.46136e-07 -2.37435e-06 1.04492e-05 -0.00654932 0.00735678 -0.206041)
(-1.05979e-06 9.36393e-07 9.48719e-08 -0.00654675 0.00734878 -0.206042)
(-1.30174e-07 1.18808e-06 -2.00045e-06 -0.00653967 0.00739981 -0.206048)
(-3.31767e-07 -1.95565e-06 -1.83246e-06 -0.00654915 0.00735552 -0.206043)
(-7.89192e-07 -1.32165e-06 -4.05764e-06 -0.0065453 0.00735 -0.206042)
(-4.85686e-07 -4.41475e-07 -1.24798e-05 -0.00653897 0.00735989 -0.206042)
(-3.79065e-07 -1.24878e-06 -1.43918e-05 -0.0065296 0.00734794 -0.206035)
(-2.53399e-07 2.48285e-06 -5.10858e-06 -0.00652608 0.00731347 -0.206032)
(-8.7561e-07 2.3215e-06 -6.17184e-06 -0.00655675 0.00736396 -0.206046)
(-2.07412e-06 9.04108e-07 -1.68503e-05 -0.00654547 0.00735306 -0.206046)
(-1.45158e-06 3.70754e-06 -3.05124e-05 -0.00654583 0.00740932 -0.206052)
(-4.08269e-06 -1.75368e-06 -3.25702e-05 -0.00654162 0.00741775 -0.206044)
(-3.95557e-05 -9.25581e-06 -4.2191e-05 -0.00653384 0.00735354 -0.206011)
(-0.000294084 -4.02447e-05 -0.000278973 -0.00653266 0.00732917 -0.205933)
(-0.00214886 -0.000170923 -0.00201527 -0.00638368 0.00711534 -0.206263)
(-0.0190856 -0.000310694 -0.00954929 -0.0057718 0.00614716 -0.208301)
(-0.0914152 -0.000614506 -0.0542476 -0.00557295 0.00640839 -0.150963)
(-0.0920458 0.000369989 0.0547766 -0.00351585 0.00401509 -0.150983)
(-0.019262 0.000204749 0.00972254 -0.00357482 0.00381603 -0.208849)
(-0.00218266 0.000122139 0.00207861 -0.00402832 0.00444271 -0.206796)
(-0.000304587 3.07589e-05 0.00030001 -0.00413979 0.00462482 -0.206478)
(-4.23313e-05 4.32185e-06 5.36451e-05 -0.00415746 0.00465326 -0.20656)
(-5.5763e-06 9.30991e-07 2.65873e-05 -0.00415593 0.00465435 -0.20658)
(-1.31852e-06 -1.27909e-06 2.16799e-05 -0.00416112 0.00465875 -0.206586)
(-1.1509e-06 -1.25377e-06 1.73693e-05 -0.00414843 0.00464641 -0.206584)
(-7.81805e-07 8.72119e-07 1.3475e-05 -0.0041514 0.00464979 -0.206583)
(-1.04651e-06 -2.3536e-07 1.16761e-05 -0.0041548 0.00465376 -0.20657)
(-1.07619e-06 -5.87668e-07 1.79875e-07 -0.00415069 0.00465037 -0.206581)
(1.40028e-07 2.36182e-06 3.9719e-06 -0.00413914 0.00465216 -0.206578)
(1.23933e-07 -5.28448e-09 1.11667e-05 -0.00415135 0.00469878 -0.206586)
(-7.39826e-07 -3.41886e-06 3.01221e-06 -0.0041501 0.0046496 -0.206581)
(-6.54439e-07 3.40766e-07 1.54777e-07 -0.00415235 0.00464374 -0.206582)
(-3.01542e-07 1.21966e-06 -1.35764e-06 -0.00415455 0.00465263 -0.206571)
(-7.04833e-07 -1.20483e-06 -2.36785e-06 -0.00414959 0.00464874 -0.206583)
(-5.52918e-07 -1.11356e-06 -1.11731e-05 -0.00414856 0.00464456 -0.206582)
(-1.25308e-07 1.03328e-06 -5.73797e-06 -0.00413631 0.0046162 -0.206558)
(-4.42683e-07 1.77477e-06 -8.1201e-06 -0.00414655 0.0046876 -0.206584)
(-1.95271e-07 5.60108e-07 -1.06776e-05 -0.00412958 0.00469149 -0.206584)
(-8.71926e-07 -7.18153e-07 -5.20539e-06 -0.00415479 0.00465506 -0.206583)
(-1.87855e-06 6.12929e-07 -1.69826e-05 -0.00414805 0.0046478 -0.206585)
(-1.41116e-06 3.72854e-06 -2.26112e-05 -0.00415826 0.00465729 -0.206585)
(-5.34935e-06 2.30993e-07 -2.59033e-05 -0.00416079 0.00470629 -0.206583)
(-4.23707e-05 -8.48394e-06 -5.91515e-05 -0.00414598 0.00469112 -0.20656)
(-0.000304278 -3.1828e-05 -0.000300036 -0.00412922 0.00458832 -0.206463)
(-0.00218284 -0.000121008 -0.00207248 -0.0040311 0.00444134 -0.206788)
(-0.0192621 -0.000203832 -0.00972434 -0.0035756 0.00381322 -0.208844)
(-0.0920448 -0.000370924 -0.0547763 -0.00351649 0.00402173 -0.150985)
(-0.0924315 0.000216926 0.0550902 -0.00222649 0.0025182 -0.151005)
(-0.019365 0.000130269 0.00983813 -0.00222311 0.00237813 -0.209169)
(-0.00220446 8.46152e-05 0.00212533 -0.00254177 0.00279388 -0.207125)
(-0.000312563 2.20259e-05 0.000310668 -0.00262681 0.00292238 -0.206814)
(-4.424e-05 3.26373e-06 5.61175e-05 -0.00264487 0.00294399 -0.206887)
(-5.98254e-06 1.06645e-06 2.68833e-05 -0.00264017 0.00294365 -0.206919)
(-1.4558e-06 -7.75015e-07 2.10839e-05 -0.00264277 0.00294702 -0.206922)
(-1.04622e-06 -8.29717e-07 1.67954e-05 -0.00263524 0.00293914 -0.206923)
(-7.5102e-07 2.61498e-07 1.34684e-05 -0.00263662 0.00294104 -0.206923)
(-9.44755e-07 -2.05478e-07 1.1457e-05 -0.00263943 0.00294548 -0.206911)
(-8.92012e-07 1.15121e-06 6.73632e-06 -0.00263691 0.00294185 -0.206919)
(-7.98243e-08 1.46406e-06 4.54242e-06 -0.00263654 0.00298419 -0.206923)
(-2.58436e-07 -1.25677e-06 4.55883e-06 -0.00264582 0.0029507 -0.206919)
(-6.48437e-07 -3.09884e-06 2.09109e-06 -0.00263609 0.00294173 -0.20692)
(-2.75352e-07 3.81977e-08 -8.80702e-08 -0.00263213 0.00290231 -0.206915)
(-3.36743e-07 1.80854e-06 -8.01759e-07 -0.00263798 0.00294381 -0.206922)
(-9.27192e-07 -8.9351e-07 -2.56953e-06 -0.0026354 0.00294147 -0.206922)
(-4.64157e-07 1.21215e-06 -1.17457e-05 -0.00263831 0.00293808 -0.206921)
(1.94943e-07 1.38289e-08 -5.49252e-06 -0.00262033 0.00298404 -0.20692)
(-3.60503e-07 2.45056e-07 -9.15309e-07 -0.00263734 0.0029071 -0.206914)
(-5.70459e-07 1.33562e-06 -9.93315e-06 -0.0026413 0.00298559 -0.206925)
(-9.50826e-07 -1.45237e-06 -1.17e-05 -0.00263998 0.00294446 -0.20692)
(-1.51628e-06 4.36213e-07 -1.67906e-05 -0.00263498 0.0029407 -0.206923)
(-1.43136e-06 2.16287e-06 -2.15277e-05 -0.00264169 0.00294678 -0.206922)
(-6.10705e-06 -8.64349e-08 -2.61667e-05 -0.00265133 0.00295327 -0.206916)
(-4.4444e-05 -4.27999e-06 -6.17512e-05 -0.0026431 0.00294396 -0.206895)
(-0.000311945 -2.32549e-05 -0.000310884 -0.00261951 0.0029617 -0.206806)
(-0.00220448 -8.54954e-05 -0.00211872 -0.00254463 0.00279122 -0.207118)
(-0.0193658 -0.000128969 -0.00983966 -0.00222216 0.00237551 -0.209167)
(-0.0924322 -0.000217335 -0.0550917 -0.00222263 0.00252307 -0.151007)
(-0.0926715 0.000125711 0.0552727 -0.0014079 0.00153221 -0.151017)
(-0.0194241 8.1632e-05 0.00991006 -0.0013948 0.00147895 -0.209361)
(-0.00221787 5.71844e-05 0.002158 -0.00161375 0.00174829 -0.207327)
(-0.000318211 1.47154e-05 0.000318232 -0.00167743 0.00183779 -0.207021)
(-4.54919e-05 2.29542e-06 5.61559e-05 -0.00168599 0.00181661 -0.207103)
(-6.23995e-06 1.74649e-06 2.74761e-05 -0.00168906 0.0018523 -0.207128)
(-1.66004e-06 -3.82088e-07 2.06858e-05 -0.00168976 0.00185408 -0.207131)
(-1.02385e-06 -5.2417e-07 1.63006e-05 -0.00168528 0.00185 -0.207133)
(-7.29116e-07 9.91587e-08 1.30453e-05 -0.00168581 0.00185166 -0.207133)
(-8.32982e-07 -2.45362e-07 1.10417e-05 -0.0016865 0.00185397 -0.207133)
(-7.46634e-07 3.36595e-07 7.17964e-06 -0.00168728 0.00185143 -0.207129)
(-1.99366e-07 9.81933e-07 5.22576e-06 -0.00169778 0.00185616 -0.207128)
(-6.55493e-07 -3.14317e-07 4.49333e-06 -0.00169196 0.00185785 -0.207126)
(-6.08122e-07 -1.32792e-06 -5.50554e-06 -0.00168573 0.0018523 -0.207129)
(2.556e-07 1.17072e-07 -9.32983e-08 -0.00167399 0.00184926 -0.207125)
(-4.17743e-07 6.51626e-07 6.3992e-06 -0.00168597 0.00185446 -0.207131)
(-9.64968e-07 -1.45664e-06 -2.81127e-06 -0.00168491 0.00185267 -0.20713)
(-4.45959e-07 2.02355e-06 -5.07315e-06 -0.00168143 0.00181581 -0.207127)
(-1.61633e-07 1.41588e-06 -1.19208e-05 -0.00168739 0.00189655 -0.207133)
(-8.87982e-08 -2.08524e-06 -7.19926e-06 -0.00167713 0.00185279 -0.207123)
(-4.37419e-07 4.18645e-08 -2.87645e-06 -0.00169115 0.00182443 -0.207125)
(-1.11685e-06 7.12941e-08 -1.20422e-05 -0.00169022 0.00185218 -0.207128)
(-1.35102e-06 4.53043e-07 -1.65766e-05 -0.00168513 0.00185169 -0.207132)
(-1.48928e-06 1.19603e-06 -2.07049e-05 -0.00168949 0.00185448 -0.20713)
(-6.4581e-06 -3.37266e-07 -2.62326e-05 -0.00169474 0.00185834 -0.207124)
(-4.59638e-05 -3.16986e-06 -5.68802e-05 -0.00169192 0.0018525 -0.207102)
(-0.00031772 -1.6856e-05 -0.000319404 -0.00168387 0.00184242 -0.207011)
(-0.00221761 -5.77241e-05 -0.00215814 -0.00161878 0.00174517 -0.207322)
(-0.0194251 -7.90971e-05 -0.00991173 -0.00139384 0.00147707 -0.209361)
(-0.0926696 -0.000125172 -0.0552758 -0.00141222 0.00157365 -0.151024)
(-0.0928181 7.223e-05 0.0553729 -0.000895811 0.000965617 -0.151027)
(-0.0194577 4.84096e-05 0.00996328 -0.000890636 0.000907577 -0.209477)
(-0.00222607 3.74582e-05 0.0021801 -0.00104014 0.00107832 -0.207452)
(-0.000322029 1.09267e-05 0.000317254 -0.0010874 0.00113893 -0.207148)
(-4.61779e-05 1.4643e-06 5.68576e-05 -0.0010864 0.00114788 -0.207231)
(-6.4283e-06 4.65954e-07 3.43967e-05 -0.00109837 0.00114714 -0.207257)
(-1.92555e-06 -2.87851e-08 2.04938e-05 -0.00109716 0.00114872 -0.20726)
(-1.01215e-06 -2.67623e-07 1.60034e-05 -0.00109439 0.00114694 -0.207262)
(-7.20889e-07 1.96126e-07 1.30289e-05 -0.00109471 0.00114851 -0.207263)
(-8.40545e-07 -3.58544e-07 1.08161e-05 -0.00109541 0.00115068 -0.207261)
(-6.27814e-07 -8.48996e-07 7.34441e-06 -0.00109728 0.00114695 -0.207258)
(-1.52116e-07 7.88174e-07 5.68858e-06 -0.00109639 0.00111702 -0.207253)
(-6.82452e-07 7.65557e-07 4.31705e-06 -0.00109818 0.00115121 -0.207256)
(-6.23364e-07 5.19109e-08 6.56477e-07 -0.00109489 0.00114887 -0.207258)
(1.23816e-07 1.27556e-07 1.50717e-07 -0.00109636 0.00118262 -0.207258)
(-6.16833e-07 -2.99388e-07 2.10132e-07 -0.00109635 0.00115046 -0.207257)
(-7.74016e-07 -1.57986e-07 -9.81949e-06 -0.00109456 0.00114975 -0.207258)
(6.28493e-08 1.13849e-06 -4.68435e-06 -0.00108164 0.00114862 -0.207255)
(-4.81736e-07 1.01171e-06 1.53443e-06 -0.00110305 0.00115696 -0.207258)
(-5.57827e-07 -5.14123e-07 -1.3926e-05 -0.00109768 0.00118488 -0.207257)
(-1.19216e-07 -1.34515e-06 -9.47374e-06 -0.00108687 0.00115394 -0.207252)
(-9.20249e-07 -6.47081e-07 -5.63525e-06 -0.00110126 0.00114717 -0.207257)
(-1.38071e-06 6.25224e-07 -1.62836e-05 -0.00109428 0.00114885 -0.207261)
(-1.58629e-06 5.92923e-07 -2.03032e-05 -0.0010975 0.00114917 -0.207259)
(-6.91944e-06 -6.48177e-07 -2.64451e-05 -0.00109984 0.00115105 -0.207253)
(-4.71116e-05 -2.64603e-06 -6.46724e-05 -0.00110194 0.00114672 -0.20723)
(-0.000321239 -1.21194e-05 -0.000325581 -0.00108208 0.00110766 -0.207132)
(-0.00222515 -3.75171e-05 -0.00217389 -0.00103694 0.00104172 -0.207443)
(-0.0194588 -4.65816e-05 -0.00995499 -0.000890259 0.000907072 -0.209476)
(-0.092814 -7.10735e-05 -0.0553814 -0.000908914 0.000965445 -0.151036)
(-0.0928994 4.05248e-05 0.0554403 -0.000606728 0.000609946 -0.151043)
(-0.0194771 2.70001e-05 0.00997869 -0.000589748 0.00053507 -0.209544)
(-0.00223012 2.32763e-05 0.00219449 -0.000693934 0.000639177 -0.207526)
(-0.000324532 7.78731e-06 0.000328115 -0.000730651 0.000678112 -0.207224)
(-4.71918e-05 3.78986e-07 5.81399e-05 -0.000741824 0.000716734 -0.207302)
(-6.50141e-06 -3.1081e-07 2.77314e-05 -0.000741725 0.000681283 -0.207335)
(-1.84539e-06 4.39247e-07 2.05348e-05 -0.000737261 0.000682992 -0.207339)
(-1.02182e-06 -8.26468e-08 1.5881e-05 -0.000735594 0.000682584 -0.207341)
(-7.4523e-07 5.22408e-08 1.32015e-05 -0.000735998 0.00068383 -0.207341)
(-9.90716e-07 -6.70697e-07 1.07033e-05 -0.000737728 0.000685163 -0.20733)
(-4.9825e-07 2.23082e-07 5.91546e-07 -0.000740855 0.000681724 -0.207337)
(1.3681e-07 9.10799e-07 6.10021e-06 -0.000726478 0.000685521 -0.20733)
(-8.10042e-07 -1.88597e-07 1.08908e-05 -0.000737509 0.000685252 -0.207335)
(-7.57745e-07 -1.12023e-06 4.59297e-07 -0.000736092 0.000684165 -0.207337)
(2.17462e-07 -1.47709e-07 3.66871e-07 -0.000739065 0.000650052 -0.207333)
(-4.66683e-07 9.49681e-07 4.86255e-07 -0.000739054 0.000684237 -0.207326)
(-7.48492e-07 1.41118e-06 -3.19694e-06 -0.000736777 0.000685041 -0.207327)
(-2.2448e-07 7.79232e-07 -4.27672e-06 -0.000733132 0.000720174 -0.207337)
(-4.21293e-07 -1.6158e-06 -5.04311e-06 -0.000741541 0.000689379 -0.207334)
(-5.11e-07 9.26465e-07 -7.40792e-06 -0.000739208 0.000651925 -0.207332)
(-4.45072e-07 -8.1901e-07 -9.67541e-06 -0.000736095 0.000723177 -0.207334)
(-7.66313e-07 -1.61563e-06 -1.24925e-05 -0.000734872 0.000648224 -0.207333)
(-1.14825e-06 1.16671e-06 -1.61278e-05 -0.000736142 0.000684648 -0.207338)
(-1.74183e-06 2.20771e-07 -2.02213e-05 -0.000738388 0.00068303 -0.207337)
(-7.10432e-06 -1.25486e-06 -2.66523e-05 -0.000738614 0.000684448 -0.207332)
(-4.79004e-05 2.71646e-08 -6.53937e-05 -0.000734916 0.000647611 -0.207305)
(-0.000323792 -5.90323e-06 -0.000336831 -0.000719796 0.000714765 -0.207213)
(-0.00222921 -2.50502e-05 -0.00218849 -0.000680809 0.000638121 -0.207518)
(-0.0194773 -2.75566e-05 -0.00997306 -0.000590654 0.000534695 -0.209542)
(-0.0928996 -3.99232e-05 -0.055437 -0.000604311 0.000572089 -0.151046)
(-0.0929479 2.0911e-05 0.055474 -0.000435746 0.000263007 -0.151046)
(-0.0194875 1.54134e-05 0.00999312 -0.000420444 0.000279993 -0.209585)
(-0.00223252 1.25296e-05 0.00220319 -0.000498487 0.000336129 -0.207569)
(-0.00032613 2.67913e-06 0.000331834 -0.000528913 0.000357231 -0.207258)
(-4.75871e-05 -6.46123e-07 5.69817e-05 -0.000539866 0.00032459 -0.207355)
(-6.37717e-06 1.38952e-06 2.8157e-05 -0.000529843 0.000324637 -0.207378)
(-1.92383e-06 1.2303e-06 2.07317e-05 -0.000532871 0.000359704 -0.207384)
(-1.12527e-06 2.46299e-08 1.58647e-05 -0.000532039 0.000359964 -0.207386)
(-8.37024e-07 -1.19889e-07 1.29206e-05 -0.000532522 0.000360822 -0.207385)
(-7.64367e-07 -1.33602e-06 1.01212e-05 -0.000533148 0.000359951 -0.207384)
(-2.88818e-07 1.38125e-06 7.67773e-06 -0.000529679 0.000325476 -0.207379)
(-2.28021e-07 1.46485e-06 6.52368e-06 -0.000532067 0.000396715 -0.207378)
(-1.10364e-06 -1.184e-06 4.11191e-06 -0.000534301 0.000362273 -0.207379)
(-6.36355e-07 -2.75796e-07 -6.44286e-06 -0.000532411 0.000361232 -0.207381)
(5.59726e-07 -4.88053e-07 -8.18534e-08 -0.000524677 0.000360619 -0.207377)
(-2.90359e-07 7.50213e-08 7.20566e-06 -0.000535429 0.00035801 -0.207381)
(-8.25839e-07 1.05782e-06 -2.51091e-06 -0.000533362 0.000360851 -0.207381)
(-5.40182e-07 4.60893e-07 -3.61215e-06 -0.000538282 0.000363284 -0.207382)
(-4.43329e-07 -1.58094e-07 -1.16193e-05 -0.000536505 0.000362788 -0.20737)
(-3.85158e-07 4.33132e-07 -7.2874e-06 -0.000523539 0.00036282 -0.207375)