/*--------------------------------*- C++ -*----------------------------------*\
| =========                 |                                                 |
| \\      /  F ield         | OpenFOAM: The Open Source CFD Toolbox           |
|  \\    /   O peration     | Version:  2106                                  |
|   \\  /    A nd           | Website:  www.openfoam.com                      |
|    \\/     M anipulation  |                                                 |
\*---------------------------------------------------------------------------*/
FoamFile
{
    version     2.0;
    format      ascii;
    arch        "LSB;label=32;scalar=64";
    class       volSymmTensorField;
    location    "973";
    object      sigma;
}
// * * * * * * * * * * * * * * * * * * * * * * * * * * * * * * * * * * * * * //

dimensions      [1 -1 -2 0 0 0 0];

internalField   nonuniform List<symmTensor> 
9000
(
(5.39353e+07 -135919 2.48448e+07 2.21918e+07 3.16774e+07 8.4993e+07)
(9.63409e+07 277451 4.84064e+06 2.42741e+07 3.35973e+07 6.9011e+07)
(1.10954e+08 173206 1.32338e+06 2.61169e+07 3.56752e+07 8.12468e+07)
(1.12755e+08 26121.5 232761 2.62567e+07 3.61337e+07 8.33129e+07)
(1.12971e+08 -4100.55 20268.1 2.62935e+07 3.61474e+07 8.33854e+07)
(1.12979e+08 -1062.59 8893.52 2.63689e+07 3.60382e+07 8.32251e+07)
(1.12977e+08 -19.4207 13010.9 2.63017e+07 3.61225e+07 8.32809e+07)
(1.12986e+08 -3052.7 3904.4 2.63777e+07 3.60388e+07 8.32298e+07)
(1.12982e+08 3327.11 16081.6 2.63761e+07 3.6037e+07 8.32231e+07)
(1.12997e+08 3418.9 -3884.12 2.63038e+07 3.61337e+07 8.33532e+07)
(1.13002e+08 -3233 -25324.3 2.63652e+07 3.60732e+07 8.32879e+07)
(1.12981e+08 -278.583 20492.6 2.64348e+07 3.59749e+07 8.31402e+07)
(1.12991e+08 2812.57 30403.7 2.63026e+07 3.61276e+07 8.33317e+07)
(1.12989e+08 427.651 -15570.3 2.62913e+07 3.61321e+07 8.33351e+07)
(1.13005e+08 445.244 958.537 2.63613e+07 3.60778e+07 8.32984e+07)
(1.12999e+08 -611.847 15722.7 2.63024e+07 3.61346e+07 8.3352e+07)
(1.12989e+08 175.1 -18735.8 2.62917e+07 3.61317e+07 8.33322e+07)
(1.13004e+08 390.288 -1614.13 2.636e+07 3.60789e+07 8.33038e+07)
(1.12998e+08 -3438.08 -12798.7 2.63068e+07 3.61303e+07 8.33434e+07)
(1.12988e+08 -3287.99 -13738.6 2.6438e+07 3.59798e+07 8.31683e+07)
(1.1298e+08 3003.22 20526.6 2.63787e+07 3.60336e+07 8.3206e+07)
(1.12992e+08 3373.88 3567.44 2.62986e+07 3.61305e+07 8.33403e+07)
(1.13e+08 -3032.1 -16433.1 2.63033e+07 3.61352e+07 8.33567e+07)
(1.12987e+08 -417.493 -13556.5 2.63728e+07 3.6041e+07 8.32381e+07)
(1.12989e+08 855.976 -12299.8 2.6301e+07 3.61277e+07 8.33342e+07)
(1.12958e+08 1000.5 -47857 2.6366e+07 3.60541e+07 8.32704e+07)
(1.12755e+08 -23569.8 -226750 2.63209e+07 3.60693e+07 8.32362e+07)
(1.10943e+08 -173091 -1.30391e+06 2.61092e+07 3.56692e+07 8.12227e+07)
(9.63383e+07 -276963 -4.83977e+06 2.42738e+07 3.35968e+07 6.9009e+07)
(5.39337e+07 135882 -2.48453e+07 2.21902e+07 3.16751e+07 8.49882e+07)
(4.17511e+07 -5803.74 2.39765e+07 2.851e+07 3.51726e+07 1.25591e+07)
(7.28747e+07 352102 4.13948e+06 2.80981e+07 3.7012e+07 -8.94494e+06)
(8.60173e+07 223206 795457 3.05972e+07 3.93263e+07 -1.43058e+06)
(8.73506e+07 36609.7 118138 3.05056e+07 3.99237e+07 -568034)
(8.74936e+07 -3260.99 16431.4 3.05447e+07 3.99407e+07 -541354)
(8.76098e+07 -1685.43 15945.6 3.07627e+07 3.99062e+07 -444941)
(8.75304e+07 260.896 13179.5 3.05959e+07 3.99119e+07 -531308)
(8.7625e+07 -884.577 -1461.09 3.07887e+07 3.99086e+07 -429830)
(8.76223e+07 1063.92 17603.7 3.0785e+07 3.9905e+07 -436242)
(8.75214e+07 3725.34 17431.5 3.05736e+07 3.99186e+07 -539249)
(8.75806e+07 1713.44 -5921.66 3.0683e+07 4.00087e+07 -465201)
(8.7687e+07 -3036.38 2241.6 3.09029e+07 3.99904e+07 -353763)
(8.75206e+07 -3604.02 12268 3.05736e+07 3.99094e+07 -541968)
(8.75401e+07 3254.84 929.051 3.06048e+07 3.98397e+07 -512671)
(8.75741e+07 1935.93 -756.362 3.06699e+07 4.00157e+07 -473606)
(8.75191e+07 -4650.1 -1068.57 3.05694e+07 3.99208e+07 -543857)
(8.75404e+07 2664.75 -431.498 3.06056e+07 3.98392e+07 -513848)
(8.7574e+07 1962.71 -1802.55 3.06677e+07 4.00164e+07 -470998)
(8.75248e+07 -1109.25 -12719.6 3.05821e+07 3.99135e+07 -537988)
(8.76833e+07 -991.5 -14403.2 3.08957e+07 4.00011e+07 -356255)
(8.76349e+07 -2143.13 2460.99 3.08059e+07 3.98986e+07 -417581)
(8.75139e+07 993.044 2616.42 3.05605e+07 3.99134e+07 -549998)
(8.75197e+07 -558.763 -19319.2 3.05705e+07 3.99212e+07 -541498)
(8.76182e+07 -896.388 -11691.7 3.07729e+07 3.99101e+07 -435219)
(8.75142e+07 1765.11 -14787.6 3.05666e+07 3.99084e+07 -546091)
(8.7596e+07 5122.28 -25992.4 3.07548e+07 3.9932e+07 -430839)
(8.74161e+07 -37896.9 -107632 3.06285e+07 4.00078e+07 -486861)
(8.60343e+07 -225771 -796458 3.0633e+07 3.92437e+07 -1.41296e+06)
(7.28761e+07 -350379 -4.14081e+06 2.81005e+07 3.7011e+07 -8.94282e+06)
(4.17503e+07 5789.97 -2.39767e+07 2.85067e+07 3.51673e+07 1.25573e+07)
(4.53337e+07 604970 2.41141e+07 5.50067e+07 3.00048e+07 5.55957e+06)
(8.00972e+07 449560 4.05682e+06 5.75572e+07 3.12853e+07 -1.55658e+07)
(9.39294e+07 268010 705352 6.21721e+07 3.33853e+07 -8.27519e+06)
(9.53065e+07 50675.1 87044.7 6.23348e+07 3.39925e+07 -7.57721e+06)
(9.54419e+07 -454.555 28666.5 6.23824e+07 3.40148e+07 -7.55947e+06)
(9.5522e+07 -2661.86 17715.2 6.251e+07 3.40713e+07 -7.4662e+06)
(9.54674e+07 1123.75 12730.8 6.24148e+07 3.39832e+07 -7.54738e+06)
(9.55184e+07 2310.82 11286.4 6.25085e+07 3.41215e+07 -7.48103e+06)
(9.55135e+07 -1476.59 4047.84 6.24989e+07 3.41177e+07 -7.48834e+06)
(9.54671e+07 -1435.87 4783.02 6.24117e+07 3.3994e+07 -7.55194e+06)
(9.54769e+07 1659.12 9541.06 6.24285e+07 3.39809e+07 -7.53401e+06)
(9.55322e+07 -1393.41 2456.17 6.25306e+07 3.4108e+07 -7.45748e+06)
(9.54955e+07 -1775.19 -10277.8 6.24515e+07 3.3937e+07 -7.49978e+06)
(9.55072e+07 1984.72 305.5 6.24871e+07 3.39954e+07 -7.50256e+06)
(9.54726e+07 269.814 6225.71 6.24218e+07 3.39892e+07 -7.54019e+06)
(9.54645e+07 -549.291 -8785.52 6.24089e+07 3.3997e+07 -7.5546e+06)
(9.55057e+07 239.13 83.8073 6.2486e+07 3.39948e+07 -7.50537e+06)
(9.5473e+07 146.548 5941.87 6.24203e+07 3.39889e+07 -7.54039e+06)
(9.54689e+07 1203.91 1437.24 6.24176e+07 3.39889e+07 -7.54877e+06)
(9.55288e+07 1446.66 -467.774 6.25249e+07 3.41107e+07 -7.46321e+06)
(9.55269e+07 -2845.96 -11029.4 6.25221e+07 3.41183e+07 -7.46728e+06)
(9.54797e+07 -1310.55 -11995.5 6.24291e+07 3.39419e+07 -7.52976e+06)
(9.54654e+07 2632.68 -6607.28 6.24104e+07 3.39976e+07 -7.55367e+06)
(9.55095e+07 -2047.07 -10706.1 6.24898e+07 3.41214e+07 -7.4899e+06)
(9.5476e+07 2086.28 -15190.7 6.24258e+07 3.39368e+07 -7.52727e+06)
(9.54942e+07 2389.42 -23499.1 6.2477e+07 3.41427e+07 -7.48706e+06)
(9.53231e+07 -52808 -97082 6.23643e+07 3.39732e+07 -7.55047e+06)
(9.39695e+07 -267870 -708871 6.22493e+07 3.33751e+07 -8.22939e+06)
(8.01008e+07 -449836 -4.05138e+06 5.75612e+07 3.12843e+07 -1.55613e+07)
(4.53316e+07 -604860 -2.41139e+07 5.49983e+07 2.99982e+07 5.55524e+06)
(4.9761e+07 936519 2.49512e+07 7.38576e+07 2.1103e+07 1.24029e+07)
(8.85269e+07 454105 4.19746e+06 7.81321e+07 2.18036e+07 -8.60792e+06)
(1.03358e+08 255339 767091 8.41468e+07 2.35275e+07 -653223)
(1.04869e+08 51826.7 97665.7 8.45315e+07 2.39808e+07 151154)
(1.05016e+08 -393.24 21018.8 8.45777e+07 2.40048e+07 168271)
(1.05074e+08 -3486.96 17999.3 8.46577e+07 2.39514e+07 234420)
(1.05051e+08 651.403 17100.1 8.46218e+07 2.3945e+07 196155)
(1.05033e+08 792.584 9724.5 8.45949e+07 2.39885e+07 166695)
(1.05054e+08 254.672 6402.55 8.46183e+07 2.39505e+07 206748)
(1.05043e+08 169.34 6018.48 8.46066e+07 2.39882e+07 177562)
(1.05045e+08 -1028.74 7598.11 8.46121e+07 2.39813e+07 182395)
(1.05051e+08 387.159 -2329.73 8.46174e+07 2.39767e+07 201663)
(1.05072e+08 3067.77 -1827.88 8.46603e+07 2.39886e+07 218327)
(1.05052e+08 534.719 5393.33 8.46281e+07 2.40736e+07 183597)
(1.05044e+08 -1792.95 -385.896 8.4613e+07 2.39886e+07 180730)
(1.0504e+08 2116.34 -1975.73 8.46034e+07 2.39915e+07 173309)
(1.0505e+08 -312.516 -133.159 8.46257e+07 2.40729e+07 179822)
(1.05045e+08 -2183.57 -162.264 8.46129e+07 2.39884e+07 180329)
(1.05053e+08 -808.1 -760.454 8.46193e+07 2.39835e+07 200328)
(1.05039e+08 -386.247 -2955.66 8.46039e+07 2.39824e+07 175916)
(1.05047e+08 579.058 -13545.3 8.4611e+07 2.39832e+07 193700)
(1.05072e+08 816.951 -10164.7 8.46535e+07 2.39856e+07 221147)
(1.05041e+08 -645.91 -3447.6 8.46066e+07 2.39929e+07 174388)
(1.05041e+08 -1978.55 -15547.2 8.4603e+07 2.39527e+07 182863)
(1.05081e+08 2507.19 -15430.4 8.4668e+07 2.39464e+07 245359)
(1.05013e+08 97.8445 -17732.2 8.45714e+07 2.40041e+07 167796)
(1.04878e+08 -50402.4 -98503.3 8.45484e+07 2.39676e+07 166138)
(1.03381e+08 -254077 -770988 8.41822e+07 2.3601e+07 -616628)
(8.85308e+07 -456865 -4.19935e+06 7.81357e+07 2.18028e+07 -8.6036e+06)
(4.97677e+07 -936159 -2.49502e+07 7.38714e+07 2.10634e+07 1.24192e+07)
(5.26185e+07 917435 2.59831e+07 8.56338e+07 1.36102e+07 1.84522e+07)
(9.39602e+07 397614 4.41095e+06 9.09626e+07 1.38114e+07 -3.00229e+06)
(1.09652e+08 212798 855435 9.77961e+07 1.5162e+07 5.54208e+06)
(1.11313e+08 44532.1 108196 9.83889e+07 1.54556e+07 6.48935e+06)
(1.11488e+08 2783.85 20537.9 9.84561e+07 1.54505e+07 6.52604e+06)
(1.11515e+08 -2441.09 12106.8 9.84948e+07 1.55249e+07 6.52571e+06)
(1.11527e+08 -1465.71 16517.5 9.85052e+07 1.54336e+07 6.54772e+06)
(1.11498e+08 1150.05 9135.06 9.84572e+07 1.54721e+07 6.50643e+06)
(1.11517e+08 -84.1136 7041.63 9.84889e+07 1.54728e+07 6.53075e+06)
(1.11511e+08 -1141.11 10897.3 9.8467e+07 1.54667e+07 6.53084e+06)
(1.11516e+08 -1070.97 6349.82 9.84824e+07 1.54354e+07 6.53504e+06)
(1.11505e+08 2045.91 1896.51 9.84644e+07 1.54668e+07 6.5224e+06)
(1.11504e+08 2538.74 -1327 9.84666e+07 1.55172e+07 6.50964e+06)
(1.11494e+08 -626.051 1181.62 9.84423e+07 1.548e+07 6.50158e+06)
(1.11505e+08 -1104.14 404.801 9.84662e+07 1.54686e+07 6.5169e+06)
(1.11501e+08 1312.51 -2342.63 9.8456e+07 1.54693e+07 6.51144e+06)
(1.11492e+08 -170.223 -464.838 9.84405e+07 1.54793e+07 6.49853e+06)
(1.11505e+08 -1779.16 509.853 9.84662e+07 1.54684e+07 6.51601e+06)
(1.11515e+08 -886.669 -1769.26 9.84718e+07 1.54659e+07 6.54084e+06)
(1.11501e+08 -53.4802 -3951.33 9.84602e+07 1.54682e+07 6.51162e+06)
(1.11503e+08 1418.23 -7524.55 9.84622e+07 1.54711e+07 6.51644e+06)
(1.11515e+08 972.883 -8950.21 9.84839e+07 1.54919e+07 6.52661e+06)
(1.11502e+08 -589.211 -12957.1 9.84625e+07 1.54711e+07 6.51164e+06)
(1.11512e+08 -512.01 -15522.4 9.84806e+07 1.54707e+07 6.52582e+06)
(1.11527e+08 1286.37 -10226.9 9.85082e+07 1.54876e+07 6.54736e+06)
(1.11476e+08 -2478.29 -18035.2 9.84372e+07 1.5481e+07 6.51014e+06)
(1.11317e+08 -44591.6 -109207 9.83949e+07 1.54463e+07 6.50018e+06)
(1.09646e+08 -211313 -857782 9.77818e+07 1.51691e+07 5.53908e+06)
(9.39641e+07 -398190 -4.41742e+06 9.09652e+07 1.38106e+07 -2.99924e+06)
(5.26307e+07 -916417 -2.59767e+07 8.5666e+07 1.36052e+07 1.84727e+07)
(5.4191e+07 721336 2.6885e+07 9.27736e+07 8.49444e+06 2.1939e+07)
(9.69926e+07 314264 4.61792e+06 9.87886e+07 8.4487e+06 -81960.5)
(1.13369e+08 165032 934145 1.06194e+08 9.38123e+06 8.93315e+06)
(1.15118e+08 38038.8 119986 1.06899e+08 9.654e+06 9.92522e+06)
(1.15314e+08 4066.12 24576.4 1.06983e+08 9.67508e+06 9.96722e+06)
(1.15314e+08 -1291.76 15243.8 1.0696e+08 9.71601e+06 9.93311e+06)
(1.15347e+08 -1993.27 12629.6 1.07015e+08 9.67781e+06 9.97479e+06)
(1.15325e+08 787.861 12707.8 1.06972e+08 9.67148e+06 9.94861e+06)
(1.15323e+08 -864.942 7006.15 1.06974e+08 9.70809e+06 9.9413e+06)
(1.15336e+08 -1483.94 2796.46 1.06986e+08 9.64482e+06 9.96646e+06)
(1.15343e+08 -849.612 5706.06 1.07004e+08 9.66553e+06 9.97205e+06)
(1.15344e+08 67.6508 5668.21 1.06995e+08 9.64361e+06 9.98758e+06)
(1.15326e+08 2496.55 -302.912 1.06966e+08 9.6494e+06 9.9556e+06)
(1.15322e+08 442.927 1799.82 1.06962e+08 9.67798e+06 9.9457e+06)
(1.15329e+08 -1311.94 485.307 1.06976e+08 9.66871e+06 9.95572e+06)
(1.15335e+08 959.364 -1934.37 1.06983e+08 9.64475e+06 9.96606e+06)
(1.15321e+08 419.905 -810.259 1.06961e+08 9.67716e+06 9.94431e+06)
(1.15328e+08 -2195.68 -242.284 1.06976e+08 9.66912e+06 9.95405e+06)
(1.15344e+08 -767.817 -2354.73 1.06993e+08 9.64366e+06 9.98617e+06)
(1.15325e+08 692.546 -3970.68 1.0697e+08 9.66832e+06 9.95144e+06)
(1.15333e+08 1528.91 -11257.6 1.06976e+08 9.66987e+06 9.96911e+06)
(1.15332e+08 975.708 -8324.22 1.06985e+08 9.67495e+06 9.9567e+06)
(1.15325e+08 -208.273 -4201.77 1.06973e+08 9.67078e+06 9.94928e+06)
(1.15339e+08 349.349 -16144.1 1.06992e+08 9.68394e+06 9.97417e+06)
(1.15335e+08 220.309 -14155.1 1.06993e+08 9.68502e+06 9.9639e+06)
(1.15299e+08 -4267.66 -18219.7 1.06953e+08 9.67587e+06 9.95288e+06)
(1.15138e+08 -37340.3 -125769 1.06922e+08 9.62363e+06 9.9671e+06)
(1.13357e+08 -163337 -935294 1.06178e+08 9.38582e+06 8.91322e+06)
(9.69971e+07 -313514 -4.61923e+06 9.87916e+07 8.44798e+06 -77564.7)
(5.4196e+07 -720849 -2.68781e+07 9.27846e+07 8.52822e+06 2.19418e+07)
(5.50566e+07 497771 2.75475e+07 9.71402e+07 5.28169e+06 2.38037e+07)
(9.86731e+07 231244 4.78856e+06 1.03575e+08 5.15417e+06 1.31203e+06)
(1.15527e+08 122712 993406 1.11399e+08 5.83622e+06 1.06147e+07)
(1.1735e+08 30078.9 141098 1.12174e+08 6.01907e+06 1.16654e+07)
(1.17551e+08 3507.22 26062.6 1.12246e+08 6.06747e+06 1.17067e+07)
(1.1756e+08 -515.183 10563.7 1.1223e+08 6.04553e+06 1.1682e+07)
(1.17586e+08 -1391.58 12520.4 1.12272e+08 6.06574e+06 1.17131e+07)
(1.17572e+08 -716.024 12485.8 1.1225e+08 6.03482e+06 1.16928e+07)
(1.17567e+08 -133.61 2985.9 1.12239e+08 6.03912e+06 1.16861e+07)
(1.17584e+08 -106.032 6435.24 1.12273e+08 6.03367e+06 1.17063e+07)
(1.17575e+08 -916.2 4962.6 1.12259e+08 6.06145e+06 1.16932e+07)
(1.17586e+08 -906.867 -1656.19 1.12272e+08 6.03248e+06 1.17126e+07)
(1.17589e+08 1487.81 4697.27 1.12274e+08 6.01602e+06 1.17172e+07)
(1.17571e+08 271.101 5545.01 1.12245e+08 6.03895e+06 1.16937e+07)
(1.17575e+08 -465.116 -3463.39 1.12252e+08 6.03292e+06 1.16981e+07)
(1.17586e+08 744.773 -1442.15 1.12272e+08 6.03324e+06 1.17103e+07)
(1.17571e+08 -199.632 2830 1.12245e+08 6.03822e+06 1.16929e+07)
(1.17575e+08 -1395.94 -5176.12 1.12253e+08 6.03334e+06 1.16972e+07)
(1.17583e+08 -998.13 -2609.82 1.12268e+08 6.03217e+06 1.17073e+07)
(1.17581e+08 -448.394 142.071 1.12261e+08 6.01083e+06 1.1709e+07)
(1.17585e+08 2483.36 -6978.18 1.12262e+08 6.01373e+06 1.1722e+07)
(1.17568e+08 1547.2 -7651.58 1.12246e+08 6.06866e+06 1.16838e+07)
(1.17571e+08 -678.568 -12167.2 1.1225e+08 6.03498e+06 1.16921e+07)
(1.17579e+08 1046 -16094.4 1.12261e+08 6.0397e+06 1.17029e+07)
(1.17579e+08 -703.747 -9719.5 1.12264e+08 6.04967e+06 1.17041e+07)
(1.17553e+08 -4543.41 -23495.8 1.12247e+08 6.0152e+06 1.17116e+07)
(1.1737e+08 -27931.7 -142434 1.12201e+08 6.01457e+06 1.17036e+07)
(1.15527e+08 -121623 -991316 1.11396e+08 5.83801e+06 1.06172e+07)
(9.86771e+07 -231005 -4.79e+06 1.03577e+08 5.15309e+06 1.31788e+06)
(5.50561e+07 -498442 -2.75446e+07 9.71338e+07 5.28778e+06 2.37986e+07)
(5.55662e+07 316264 2.79857e+07 9.9853e+07 3.30115e+06 2.48515e+07)
(9.96496e+07 160564 4.92411e+06 1.06519e+08 3.17177e+06 2.02804e+06)
(1.16817e+08 88877.7 1.03869e+06 1.14634e+08 3.67029e+06 1.15175e+07)
(1.18703e+08 21533.5 147346 1.15481e+08 3.77912e+06 1.26163e+07)
(1.18909e+08 2815.24 27243.1 1.15546e+08 3.79863e+06 1.26581e+07)
(1.18928e+08 552.973 13703.4 1.15548e+08 3.79986e+06 1.26412e+07)
(1.1893e+08 -1003.15 11655.7 1.1555e+08 3.82337e+06 1.2636e+07)
(1.18936e+08 -1083.29 9038.53 1.1556e+08 3.79265e+06 1.26456e+07)
(1.18934e+08 800.529 6680.59 1.15554e+08 3.79599e+06 1.26426e+07)
(1.18938e+08 -140.642 6091.63 1.15565e+08 3.81805e+06 1.26443e+07)
(1.18935e+08 -1152.9 4238.52 1.15557e+08 3.79457e+06 1.26451e+07)
(1.18945e+08 719.567 -1529.77 1.15574e+08 3.79742e+06 1.26559e+07)
(1.18948e+08 602.761 1844.72 1.1558e+08 3.82001e+06 1.26573e+07)
(1.18937e+08 -1224.84 5390.37 1.15559e+08 3.79509e+06 1.26484e+07)
(1.18938e+08 483.051 48.9409 1.15561e+08 3.79096e+06 1.26487e+07)
(1.18939e+08 612.886 -1031.96 1.15565e+08 3.81728e+06 1.26463e+07)
(1.18937e+08 -1008.85 -945.299 1.15558e+08 3.79444e+06 1.26469e+07)
(1.18938e+08 -681.79 -2093.19 1.15562e+08 3.79159e+06 1.26494e+07)
(1.18942e+08 -227.74 -6437.89 1.15569e+08 3.7967e+06 1.26528e+07)
(1.18949e+08 -644.2 -7424.17 1.15581e+08 3.79053e+06 1.26631e+07)
(1.18952e+08 1280.81 -2635.33 1.15586e+08 3.77275e+06 1.26685e+07)
(1.18931e+08 1197.58 -3183.82 1.15549e+08 3.79879e+06 1.26399e+07)
(1.18935e+08 466.396 -8692.46 1.1556e+08 3.79317e+06 1.26446e+07)
(1.18933e+08 1912.58 -15740.2 1.15557e+08 3.82219e+06 1.2639e+07)
(1.18936e+08 -904.658 -16801.8 1.15564e+08 3.82654e+06 1.2648e+07)
(1.1892e+08 -4774.73 -21764.8 1.1557e+08 3.79342e+06 1.2667e+07)
(1.18708e+08 -20760.8 -143912 1.1549e+08 3.78085e+06 1.26266e+07)
(1.16818e+08 -88172.6 -1.0396e+06 1.14634e+08 3.67054e+06 1.15234e+07)
(9.96609e+07 -160276 -4.92612e+06 1.06529e+08 3.17109e+06 2.05188e+06)
(5.55654e+07 -317001 -2.79843e+07 9.98482e+07 3.30585e+06 2.48468e+07)
(5.58852e+07 190863 2.82572e+07 1.01555e+08 2.07124e+06 2.54818e+07)
(1.00245e+08 105622 5.0155e+06 1.08338e+08 1.96855e+06 2.44439e+06)
(1.17621e+08 63007 1.07228e+06 1.16669e+08 2.29183e+06 1.20687e+07)
(1.19546e+08 15867.4 154764 1.17567e+08 2.38577e+06 1.31886e+07)
(1.19755e+08 2229.48 27673.5 1.17633e+08 2.40044e+06 1.32207e+07)
(1.19783e+08 480.264 13715.4 1.17642e+08 2.40101e+06 1.32185e+07)
(1.19782e+08 -659.837 11183.9 1.17636e+08 2.40328e+06 1.32123e+07)
(1.19788e+08 -646.773 8960.18 1.17649e+08 2.39691e+06 1.32197e+07)
(1.19788e+08 449.894 6951.24 1.17647e+08 2.39865e+06 1.32195e+07)
(1.19792e+08 -121.413 6023.28 1.17649e+08 2.4007e+06 1.32309e+07)
(1.19789e+08 -303.156 92.7907 1.17648e+08 2.39895e+06 1.32217e+07)
(1.19797e+08 1218.37 2048.96 1.17662e+08 2.39988e+06 1.32311e+07)
(1.19787e+08 -2.72607 5760.5 1.17646e+08 2.42393e+06 1.32173e+07)
(1.1979e+08 -1763.66 1553.89 1.17649e+08 2.39856e+06 1.32229e+07)
(1.19788e+08 175.788 79.8439 1.17647e+08 2.39553e+06 1.3221e+07)
(1.19793e+08 629.178 -700.357 1.1765e+08 2.40012e+06 1.32305e+07)
(1.19789e+08 -621.529 -1221.48 1.17649e+08 2.39811e+06 1.32212e+07)
(1.1979e+08 -574.445 -5763.77 1.1765e+08 2.39595e+06 1.32223e+07)
(1.19807e+08 533.029 -2960 1.17674e+08 2.38133e+06 1.32519e+07)
(1.1979e+08 915.537 -4188.86 1.17651e+08 2.41816e+06 1.32215e+07)
(1.19798e+08 288.939 -5508.19 1.17668e+08 2.42016e+06 1.32289e+07)
(1.19787e+08 -370.468 -2685.27 1.17644e+08 2.40137e+06 1.32186e+07)
(1.19788e+08 316.187 -8760.68 1.17649e+08 2.39763e+06 1.32191e+07)
(1.19784e+08 1923.42 -11664.3 1.17639e+08 2.40252e+06 1.32149e+07)
(1.19779e+08 119.161 -13362.5 1.17635e+08 2.4278e+06 1.32132e+07)
(1.1976e+08 -4376.55 -30514.1 1.17644e+08 2.41997e+06 1.32255e+07)
(1.19557e+08 -16418.9 -154778 1.17584e+08 2.36694e+06 1.32079e+07)
(1.17623e+08 -62423.4 -1.06912e+06 1.1667e+08 2.29112e+06 1.20752e+07)
(1.00247e+08 -105149 -5.01643e+06 1.08339e+08 1.9671e+06 2.44903e+06)
(5.58849e+07 -191346 -2.8257e+07 1.01553e+08 2.07466e+06 2.54797e+07)
(5.60903e+07 111904 2.8419e+07 1.02624e+08 1.29905e+06 2.58742e+07)
(1.00618e+08 67200.9 5.07512e+06 1.09461e+08 1.22679e+06 2.70477e+06)
(1.1813e+08 43649.8 1.09638e+06 1.17956e+08 1.44126e+06 1.24194e+07)
(1.20077e+08 11362.3 160262 1.18884e+08 1.50755e+06 1.35511e+07)
(1.20297e+08 1683.64 28948.9 1.18955e+08 1.51869e+06 1.35943e+07)
(1.20322e+08 550.14 13868.1 1.18963e+08 1.51852e+06 1.35834e+07)
(1.20323e+08 -399.802 10876.4 1.18961e+08 1.52026e+06 1.35806e+07)
(1.20327e+08 -428.02 8664.14 1.18968e+08 1.51619e+06 1.35834e+07)
(1.20327e+08 134.897 6947.85 1.18967e+08 1.51717e+06 1.35834e+07)
(1.20331e+08 -105.998 5910.26 1.1897e+08 1.51947e+06 1.3594e+07)
(1.20328e+08 593.866 3475.02 1.18968e+08 1.51759e+06 1.35866e+07)
(1.20328e+08 755.255 2343.26 1.18968e+08 1.53943e+06 1.35839e+07)
(1.20325e+08 -648.323 2351.73 1.1896e+08 1.52215e+06 1.35827e+07)
(1.20329e+08 -1598.58 1078.72 1.18969e+08 1.51753e+06 1.35869e+07)
(1.20333e+08 19.7048 -45.4321 1.18975e+08 1.49719e+06 1.3593e+07)
(1.20327e+08 932.957 -413.598 1.18966e+08 1.5186e+06 1.35839e+07)
(1.20328e+08 -460.928 -1325.52 1.18969e+08 1.51739e+06 1.35851e+07)
(1.20327e+08 625.305 -6059.15 1.18966e+08 1.51565e+06 1.35842e+07)
(1.20337e+08 7.13383 -2833.39 1.18985e+08 1.53936e+06 1.35941e+07)
(1.20331e+08 126.415 -472.174 1.18971e+08 1.49967e+06 1.35921e+07)
(1.20324e+08 688.999 -5124.14 1.18962e+08 1.54016e+06 1.3579e+07)
(1.20327e+08 -749.222 -6035.62 1.18965e+08 1.51894e+06 1.35849e+07)
(1.20327e+08 225.026 -8661.63 1.18968e+08 1.517e+06 1.35834e+07)
(1.20324e+08 1115.74 -11105.3 1.18962e+08 1.52014e+06 1.3582e+07)
(1.20318e+08 -44.5885 -13498.4 1.18953e+08 1.52348e+06 1.35806e+07)
(1.20294e+08 -2207.89 -31855.1 1.18954e+08 1.51868e+06 1.35877e+07)
(1.20085e+08 -11996.3 -160373 1.18895e+08 1.52783e+06 1.35625e+07)
(1.18132e+08 -44103.9 -1.09297e+06 1.17957e+08 1.43989e+06 1.24248e+07)
(1.00618e+08 -66530.5 -5.07591e+06 1.09462e+08 1.22544e+06 2.70687e+06)
(5.60906e+07 -112115 -2.84198e+07 1.02626e+08 1.30156e+06 2.58739e+07)
(5.62265e+07 64849.5 2.85131e+07 1.03306e+08 790409 2.61283e+07)
(1.00852e+08 42110.9 5.11223e+06 1.10153e+08 762934 2.87064e+06)
(1.1845e+08 29499.3 1.11323e+06 1.18762e+08 901880 1.26416e+07)
(1.20412e+08 7591.11 164164 1.19711e+08 948047 1.3782e+07)
(1.20636e+08 1184.12 28968.7 1.1979e+08 937122 1.38229e+07)
(1.20662e+08 900.948 14173.9 1.19794e+08 955535 1.38157e+07)
(1.20665e+08 -197.105 10671 1.19794e+08 956452 1.38143e+07)
(1.20666e+08 -270.4 8408.88 1.19798e+08 954347 1.38148e+07)
(1.20666e+08 51.1523 6729.57 1.19797e+08 955200 1.38144e+07)
(1.20666e+08 -126.573 5696.01 1.19797e+08 956397 1.38148e+07)
(1.20668e+08 173.637 3703.71 1.19798e+08 955085 1.38182e+07)
(1.20664e+08 506.543 2695.78 1.19788e+08 957521 1.38139e+07)
(1.20667e+08 -162.145 2317.94 1.19794e+08 958396 1.38182e+07)
(1.20669e+08 -685.022 -2840.1 1.19799e+08 955534 1.38188e+07)
(1.20677e+08 60.3932 -48.1291 1.19813e+08 953963 1.38283e+07)
(1.20668e+08 336.15 3301.11 1.19798e+08 956648 1.38168e+07)
(1.20668e+08 -751.428 -1450.23 1.19799e+08 955721 1.38175e+07)
(1.20672e+08 1043.87 -2617.05 1.19805e+08 936708 1.38231e+07)
(1.20666e+08 730.4 -6149.5 1.19796e+08 978361 1.38142e+07)
(1.20676e+08 -1075.7 -3713.83 1.19811e+08 955784 1.38287e+07)
(1.20668e+08 21.5963 -1483.85 1.19796e+08 941156 1.38199e+07)
(1.20666e+08 36.778 -6212.15 1.19795e+08 955473 1.38175e+07)
(1.20667e+08 233.708 -8551.25 1.19798e+08 955220 1.38154e+07)
(1.20665e+08 616.988 -10680.9 1.19795e+08 956655 1.38155e+07)
(1.20661e+08 -173.983 -13532.4 1.1979e+08 958647 1.38164e+07)
(1.20634e+08 -1635.21 -29342.4 1.19785e+08 955635 1.38213e+07)
(1.20414e+08 -8695.38 -164769 1.1971e+08 950438 1.37889e+07)
(1.18451e+08 -29777.7 -1.1133e+06 1.18759e+08 900268 1.2645e+07)
(1.00852e+08 -40803.3 -5.11309e+06 1.10153e+08 761967 2.87076e+06)
(5.62231e+07 -64571.8 -2.85147e+07 1.03299e+08 811787 2.61202e+07)
(5.6314e+07 37260.8 2.85648e+07 1.03733e+08 498126 2.62863e+07)
(1.00997e+08 24972.7 5.13969e+06 1.10575e+08 468185 2.97363e+06)
(1.18648e+08 19323.3 1.12463e+06 1.1926e+08 556263 1.27798e+07)
(1.20621e+08 5636.67 163660 1.20226e+08 587530 1.39273e+07)
(1.20852e+08 755.376 29330.7 1.20315e+08 592150 1.39731e+07)
(1.20873e+08 240.368 17744 1.2031e+08 591768 1.39606e+07)
(1.20877e+08 -14.8491 10572 1.20312e+08 592581 1.39599e+07)
(1.20878e+08 -138.057 8255.56 1.20314e+08 591666 1.39596e+07)
(1.20878e+08 101.174 6721.11 1.20314e+08 592474 1.39594e+07)
(1.20878e+08 -184.959 5579.6 1.20314e+08 593592 1.39607e+07)
(1.20879e+08 -437.965 3788.71 1.20313e+08 591669 1.39626e+07)
(1.20882e+08 406.59 2934.53 1.20317e+08 576227 1.39683e+07)
(1.2088e+08 394.922 2227.01 1.20314e+08 593865 1.39645e+07)
(1.2088e+08 26.7789 338.652 1.20316e+08 592660 1.39638e+07)
(1.2088e+08 65.8014 77.7495 1.20314e+08 610069 1.39631e+07)
(1.2088e+08 -154.443 108.399 1.20315e+08 593479 1.39639e+07)
(1.2088e+08 -81.4992 -5065.51 1.20316e+08 593111 1.3964e+07)
(1.20888e+08 587.303 -2416.48 1.2033e+08 592532 1.39729e+07)
(1.20876e+08 521.903 791.556 1.20308e+08 596833 1.39599e+07)
(1.2088e+08 -265.217 -7183.92 1.20314e+08 611234 1.39637e+07)
(1.20887e+08 -693.911 -4887.15 1.20326e+08 595276 1.39732e+07)
(1.20877e+08 -333.805 -2907.02 1.2031e+08 591780 1.39617e+07)
(1.20878e+08 322.53 -8400.11 1.20315e+08 592650 1.39609e+07)
(1.20878e+08 305.867 -10473.6 1.20312e+08 592816 1.39613e+07)
(1.20874e+08 -334.37 -13642 1.2031e+08 593781 1.39631e+07)
(1.20844e+08 -1364.99 -33362.1 1.203e+08 591550 1.39663e+07)
(1.20631e+08 -6251.95 -167955 1.20239e+08 571398 1.3945e+07)
(1.18654e+08 -19353.7 -1.12143e+06 1.19267e+08 537382 1.27903e+07)
(1.00997e+08 -24029.7 -5.13541e+06 1.10576e+08 467925 2.9741e+06)
(5.63077e+07 -36664.2 -2.85692e+07 1.03718e+08 498037 2.62731e+07)
(5.63599e+07 20905.2 2.85996e+07 1.0397e+08 314648 2.63659e+07)
(1.01085e+08 13928.4 5.14764e+06 1.10829e+08 276023 3.03684e+06)
(1.18769e+08 12007.4 1.13206e+06 1.19561e+08 329727 1.28638e+07)
(1.20747e+08 4017.18 169262 1.20538e+08 349813 1.40159e+07)
(1.20976e+08 195.505 29992.2 1.20618e+08 369736 1.40613e+07)
(1.21001e+08 -160.335 14305.6 1.20622e+08 351448 1.40477e+07)
(1.21006e+08 226.591 10593.2 1.20627e+08 352330 1.40483e+07)
(1.21007e+08 -42.6344 8192.41 1.20628e+08 352120 1.40476e+07)
(1.21007e+08 26.9491 6810.15 1.20627e+08 352763 1.40478e+07)
(1.21011e+08 -345.987 5521.43 1.20631e+08 353450 1.40573e+07)
(1.21007e+08 115.08 305.157 1.20625e+08 351676 1.40495e+07)
(1.21017e+08 469.847 3146.87 1.20642e+08 353635 1.40627e+07)
(1.21009e+08 -97.2901 5618.18 1.20629e+08 353496 1.40526e+07)
(1.21009e+08 -577.884 236.934 1.20629e+08 352935 1.40518e+07)
(1.2101e+08 -76.1974 189.255 1.20628e+08 335338 1.40542e+07)
(1.21012e+08 489.905 250.841 1.20631e+08 352972 1.40605e+07)
(1.21013e+08 727.976 -1649.18 1.20633e+08 353387 1.40604e+07)
(1.2101e+08 401.977 -2206.2 1.20632e+08 371511 1.40525e+07)
(1.21007e+08 -833.532 -2601.55 1.20625e+08 355625 1.40516e+07)
(1.2101e+08 477.929 -3821.47 1.20629e+08 336304 1.40551e+07)
(1.2101e+08 -422.497 -4991.18 1.20631e+08 373060 1.40544e+07)
(1.21011e+08 -833.443 -6444.4 1.20632e+08 334395 1.40558e+07)
(1.21008e+08 601.861 -8319.74 1.20628e+08 353184 1.40502e+07)
(1.21006e+08 113.888 -10431.4 1.20626e+08 352350 1.40494e+07)
(1.21003e+08 -647.338 -13748.9 1.20626e+08 353081 1.40519e+07)
(1.20978e+08 14.0132 -33734.2 1.20623e+08 334078 1.40614e+07)
(1.20758e+08 -3045.26 -173758 1.20554e+08 368721 1.40313e+07)
(1.1878e+08 -12922.4 -1.12896e+06 1.19578e+08 329183 1.28789e+07)
(1.01086e+08 -14215.4 -5.14473e+06 1.10829e+08 275829 3.03868e+06)
(5.63593e+07 -20594.9 -2.85979e+07 1.03971e+08 295119 2.63634e+07)
(5.63895e+07 10787.2 2.8617e+07 1.04113e+08 135675 2.64185e+07)
(1.01135e+08 7951.21 5.15508e+06 1.1097e+08 144438 3.07051e+06)
(1.18836e+08 6463.55 1.13654e+06 1.19731e+08 173397 1.29111e+07)
(1.20823e+08 1382.07 171181 1.20718e+08 184282 1.40746e+07)
(1.21044e+08 -333.311 29394.8 1.2079e+08 167444 1.41022e+07)
(1.21079e+08 716.802 14525.1 1.20809e+08 167468 1.41035e+07)
(1.21079e+08 634.668 10694.7 1.20805e+08 185558 1.40986e+07)
(1.21079e+08 12.7057 8184.02 1.20805e+08 185692 1.40974e+07)
(1.2108e+08 -61.8464 6665.24 1.20805e+08 186135 1.4098e+07)
(1.2108e+08 -689.205 5221.16 1.20805e+08 185685 1.40985e+07)
(1.21084e+08 712.534 3960.66 1.20811e+08 167901 1.4105e+07)
(1.21084e+08 755.663 3365.32 1.20809e+08 204651 1.41052e+07)
(1.21081e+08 -610.783 2121.18 1.20806e+08 186883 1.41027e+07)
(1.21082e+08 -142.273 -3323.63 1.20807e+08 186346 1.41018e+07)
(1.21088e+08 -251.768 -42.2251 1.20818e+08 186030 1.41103e+07)
(1.21081e+08 38.7007 3717.13 1.20805e+08 184684 1.41005e+07)
(1.21081e+08 545.69 -1295.29 1.20806e+08 186150 1.41015e+07)
(1.21079e+08 237.758 -1863.37 1.20801e+08 187405 1.40987e+07)
(1.21085e+08 -81.5547 -5993.97 1.20808e+08 187149 1.41106e+07)
(1.21089e+08 223.437 -3759.3 1.20819e+08 187166 1.41118e+07)
(1.21084e+08 -312.466 -5253.28 1.20805e+08 187965 1.41096e+07)
(1.21088e+08 -410.022 -6581.99 1.20819e+08 185307 1.41105e+07)
(1.21084e+08 3.98871 -5135.23 1.2081e+08 186346 1.41085e+07)
(1.21078e+08 87.0819 -10470.4 1.20803e+08 185056 1.40985e+07)
(1.21077e+08 1.3807 -17266.2 1.20805e+08 186184 1.41024e+07)
(1.21056e+08 497.142 -30472.5 1.20811e+08 185075 1.41172e+07)
(1.2082e+08 -1232.74 -167824 1.20713e+08 203505 1.40707e+07)
(1.18841e+08 -7683.32 -1.13708e+06 1.19737e+08 191542 1.29174e+07)
(1.01134e+08 -8014.63 -5.15516e+06 1.10969e+08 143390 3.07198e+06)
(5.63884e+07 -10539.2 -2.86172e+07 1.04113e+08 155810 2.64143e+07)
(5.64073e+07 3364.68 2.86216e+07 1.04191e+08 48808.5 2.64509e+07)
(1.01156e+08 2169.14 5.16357e+06 1.11034e+08 44752.5 3.08424e+06)
(1.18867e+08 1924.14 1.13846e+06 1.19807e+08 53944.8 1.29322e+07)
(1.20851e+08 105.788 167402 1.20794e+08 56609.5 1.40882e+07)
(1.21089e+08 248.345 26046.7 1.20893e+08 40359.4 1.41378e+07)
(1.21117e+08 495.394 18038.2 1.209e+08 57618.8 1.41322e+07)
(1.21112e+08 11.618 14256.9 1.20886e+08 57437.6 1.41214e+07)
(1.21112e+08 29.8986 8205.76 1.20886e+08 57714.4 1.412e+07)
(1.21113e+08 -21.6753 6578.9 1.20886e+08 57877.6 1.41208e+07)
(1.21113e+08 -45.0671 1654.06 1.20886e+08 57697.3 1.41206e+07)
(1.21122e+08 184.058 4103.94 1.20901e+08 57796.2 1.41334e+07)
(1.21112e+08 -30.3804 7000.9 1.20881e+08 58353.7 1.41231e+07)
(1.21118e+08 -139.466 2090.06 1.20889e+08 57865.8 1.41335e+07)
(1.21115e+08 439.934 -63.6235 1.20888e+08 58136.4 1.41242e+07)
(1.21115e+08 -367.833 -285.731 1.20886e+08 75442.4 1.41243e+07)
(1.21112e+08 -441.538 395.501 1.20883e+08 56469.3 1.41203e+07)
(1.21118e+08 435.734 -956.33 1.2089e+08 57947.4 1.41316e+07)
(1.21113e+08 143.83 -1944.85 1.20884e+08 58477.8 1.41227e+07)
(1.21114e+08 643.886 -2635.51 1.20886e+08 57659.1 1.41239e+07)
(1.21116e+08 81.5271 -3659.63 1.2089e+08 76521 1.41273e+07)
(1.21113e+08 -357.511 -5288.34 1.20884e+08 58574.3 1.4124e+07)
(1.21114e+08 -180.045 -6681.2 1.20886e+08 75118.6 1.41242e+07)
(1.21113e+08 -591.09 -8277.25 1.20887e+08 57598.1 1.41225e+07)
(1.2111e+08 76.9833 -10293.3 1.20882e+08 56628.6 1.41198e+07)
(1.2111e+08 653.831 -13832.2 1.20886e+08 57839.1 1.4126e+07)
(1.21081e+08 106.147 -30485.1 1.20877e+08 75088.1 1.41311e+07)
(1.20849e+08 -720.495 -171720 1.20786e+08 58098.8 1.40888e+07)
(1.18867e+08 -3058.31 -1.13965e+06 1.19805e+08 55112.5 1.29342e+07)