/*--------------------------------*- C++ -*----------------------------------*\
| =========                 |                                                 |
| \\      /  F ield         | OpenFOAM: The Open Source CFD Toolbox           |
|  \\    /   O peration     | Version:  2106                                  |
|   \\  /    A nd           | Website:  www.openfoam.com                      |
|    \\/     M anipulation  |                                                 |
\*---------------------------------------------------------------------------*/
FoamFile
{
    version     2.0;
    format      ascii;
    arch        "LSB;label=32;scalar=64";
    class       volVectorField;
    location    "1464";
    object      D;
}
// * * * * * * * * * * * * * * * * * * * * * * * * * * * * * * * * * * * * * //

dimensions      [0 1 0 0 0 0 0];

internalField   nonuniform List<vector> 
9000
(
(-4.93644 -56.1516 -43.7321)
(7.11491 -47.5774 -37.7575)
(9.45494 -35.3151 -29.9912)
(7.98024 -25.8114 -24.3583)
(5.81716 -20.2498 -20.7991)
(3.92159 -17.9337 -18.0532)
(1.98447 -17.8807 -15.7739)
(0.0438045 -18.88 -14.5805)
(-1.00555 -19.5644 -14.7314)
(-0.679438 -18.7669 -15.1786)
(0.43754 -16.4785 -15.0124)
(1.34069 -13.6935 -13.9145)
(1.33941 -11.5989 -12.3121)
(0.55676 -10.9105 -11.0185)
(-0.318361 -11.5819 -10.4745)
(-0.84526 -12.9158 -10.5964)
(-1.23047 -14.1155 -11.187)
(-1.86505 -15.003 -12.4186)
(-2.4334 -15.9935 -14.6659)
(-2.24668 -17.6198 -17.2826)
(-1.39575 -20.0664 -19.1764)
(-0.766899 -23.0226 -20.0232)
(-0.799409 -25.8109 -20.6541)
(-0.602807 -27.4647 -21.8814)
(0.872703 -26.9403 -22.8093)
(3.23027 -24.0918 -22.0094)
(5.02444 -19.9683 -19.1489)
(5.34154 -16.0299 -15.2827)
(4.93949 -13.02 -11.6471)
(7.03573 -10.5155 -10.4989)
(-5.70552 -46.4461 -20.3645)
(5.0205 -36.7641 -19.1414)
(7.56843 -25.8673 -16.6621)
(6.7454 -17.5392 -14.6802)
(5.16654 -12.8463 -13.1724)
(3.68431 -11.5683 -11.1971)
(2.00174 -12.7311 -8.76452)
(0.139774 -14.598 -7.01972)
(-1.02169 -15.4077 -6.83937)
(-0.908908 -14.2675 -7.66512)
(0.0520658 -11.6392 -8.49507)
(0.950047 -8.88448 -8.5456)
(1.08847 -7.20748 -7.77313)
(0.51164 -7.05367 -6.73848)
(-0.19199 -8.13846 -5.91596)
(-0.644335 -9.67294 -5.46765)
(-1.03032 -10.7969 -5.52695)
(-1.655 -11.1905 -6.42245)
(-2.15371 -11.1842 -8.34503)
(-1.86844 -11.7516 -10.3761)
(-0.945844 -13.6622 -11.2831)
(-0.312526 -16.7114 -10.859)
(-0.445838 -19.6909 -10.2758)
(-0.498764 -21.0608 -10.8075)
(0.616288 -19.996 -12.0211)
(2.66347 -17.0233 -12.4926)
(4.34845 -13.5733 -11.3688)
(4.75978 -10.8892 -9.05679)
(4.49496 -9.24797 -6.5055)
(6.43347 -7.93909 -6.02565)
(-6.57321 -42.6277 -14.4783)
(3.29352 -31.7599 -14.0571)
(6.11902 -21.0122 -12.8813)
(5.83462 -12.9885 -11.6354)
(4.64972 -8.60698 -10.5282)
(3.39417 -7.9634 -8.84269)
(1.86923 -10.0521 -6.62938)
(0.119286 -12.6678 -4.96858)
(-1.03101 -13.6435 -4.74475)
(-1.00745 -12.1836 -5.53935)
(-0.157492 -9.13188 -6.42721)
(0.686265 -6.20589 -6.64133)
(0.866737 -4.69702 -6.08538)
(0.406982 -4.89479 -5.22544)
(-0.166719 -6.32996 -4.4785)
(-0.525614 -8.11077 -3.99955)
(-0.85177 -9.27482 -3.95102)
(-1.40693 -9.35232 -4.67871)
(-1.82996 -8.66247 -6.31445)
(-1.51942 -8.55216 -7.99936)
(-0.63261 -10.2418 -8.62273)
(-0.0483441 -13.5773 -8.02362)
(-0.226946 -16.8976 -7.30276)
(-0.388922 -18.1769 -7.66779)
(0.501654 -16.6594 -8.81296)
(2.29121 -13.3668 -9.47757)
(3.83411 -10.1064 -8.80637)
(4.28224 -8.0805 -7.03243)
(4.12455 -7.26997 -4.92494)
(5.91586 -6.71665 -4.61438)
(-7.6129 -40.2658 -13.8927)
(1.99488 -28.6914 -12.7542)
(5.04402 -18 -11.628)
(5.16981 -10.1573 -10.2864)
(4.21285 -5.95683 -9.12488)
(3.02264 -5.70038 -7.6379)
(1.57663 -8.37743 -5.82879)
(-0.0162875 -11.4905 -4.50534)
(-1.02981 -12.5923 -4.34005)
(-0.980956 -10.9288 -4.94697)
(-0.209549 -7.60012 -5.5679)
(0.527767 -4.55573 -5.63024)
(0.661922 -3.14212 -5.11484)
(0.245046 -3.55596 -4.42656)
(-0.232253 -5.2112 -3.88318)
(-0.481536 -7.15287 -3.55666)
(-0.690483 -8.35112 -3.54129)
(-1.11355 -8.2282 -4.1311)
(-1.44987 -7.11835 -5.44144)
(-1.18427 -6.60797 -6.80331)
(-0.440852 -8.19123 -7.34371)
(0.0404395 -11.7322 -6.92992)
(-0.126976 -15.2748 -6.43134)
(-0.261576 -16.4936 -6.79389)
(0.526867 -14.6697 -7.73121)
(2.09331 -11.1377 -8.22919)
(3.44754 -7.95182 -7.62468)
(3.86831 -6.30454 -6.12474)
(3.78722 -6.00804 -4.32569)
(5.50365 -5.98025 -4.13747)
(-8.69921 -37.4983 -14.8696)
(1.04696 -26.0091 -12.4561)
(4.24267 -15.7075 -10.981)
(4.66573 -8.19393 -9.3325)
(3.81715 -4.19675 -8.0123)
(2.5823 -4.15388 -6.71738)
(1.16352 -7.09498 -5.38605)
(-0.236666 -10.4259 -4.49289)
(-1.02012 -11.5853 -4.42062)
(-0.863599 -9.85852 -4.78278)
(-0.149712 -6.47061 -5.02935)
(0.443006 -3.44799 -4.84325)
(0.469434 -2.128 -4.3187)
(0.0448401 -2.65257 -3.80502)
(-0.35966 -4.38609 -3.505)
(-0.490032 -6.36319 -3.38859)
(-0.542331 -7.54394 -3.45307)
(-0.789154 -7.30448 -3.90837)
(-1.0325 -5.99699 -4.87137)
(-0.863429 -5.30122 -5.9093)
(-0.340248 -6.80983 -6.42708)
(0.00150579 -10.3853 -6.31368)
(-0.110552 -13.9484 -6.15059)
(-0.116692 -15.0733 -6.55828)
(0.658921 -13.0951 -7.23672)
(2.02649 -9.49527 -7.45139)
(3.15681 -6.41223 -6.79888)
(3.50191 -5.00533 -5.50527)
(3.47796 -5.01639 -3.99224)
(5.19101 -5.35613 -3.96243)
(-9.70776 -33.7581 -16.2045)
(0.333094 -23.1686 -12.4225)
(3.61427 -13.6982 -10.4996)
(4.2505 -6.72355 -8.51939)
(3.43922 -2.98867 -7.03473)
(2.104 -3.03041 -5.92582)
(0.687238 -5.96138 -5.07016)
(-0.501753 -9.25879 -4.61478)
(-1.00535 -10.4061 -4.63911)
(-0.696819 -8.74464 -4.74769)
(-0.0286436 -5.50785 -4.60508)
(0.401127 -2.65599 -4.155)
(0.289251 -1.45247 -3.60709)
(-0.16966 -2.00792 -3.25888)
(-0.515783 -3.69448 -3.1994)
(-0.525708 -5.58615 -3.29791)
(-0.404316 -6.68964 -3.45209)
(-0.456724 -6.39599 -3.77981)
(-0.609407 -5.06775 -4.40934)
(-0.565444 -4.34805 -5.1463)
(-0.298984 -5.78076 -5.667)
(-0.110283 -9.21586 -5.87536)
(-0.138851 -12.602 -6.0615)
(0.0406958 -13.5854 -6.52019)
(0.855764 -11.5847 -6.93326)
(2.04339 -8.09231 -6.84279)
(2.93548 -5.18289 -6.11216)
(3.18069 -3.94638 -4.99659)
(3.20881 -4.12676 -3.75198)
(4.97552 -4.72531 -3.90398)
(-10.5586 -29.0924 -17.3189)
(-0.259053 -20.0748 -12.3618)
(3.07275 -11.828 -10.0508)
(3.86934 -5.57181 -7.79531)
(3.06583 -2.14837 -6.17774)
(1.62049 -2.18055 -5.23832)
(0.202631 -4.89573 -4.80683)
(-0.773345 -7.96496 -4.74343)
(-0.987839 -9.04403 -4.84925)
(-0.517533 -7.54714 -4.72364)
(0.109551 -4.62668 -4.2285)
(0.376365 -2.06675 -3.54074)
(0.122592 -1.00553 -2.97036)
(-0.376919 -1.53581 -2.76809)
(-0.671373 -3.0801 -2.92138)
(-0.565889 -4.79134 -3.21022)
(-0.274164 -5.76838 -3.44385)
(-0.13844 -5.46528 -3.65714)
(-0.211009 -4.24346 -3.99498)
(-0.299678 -3.61026 -4.47631)
(-0.28941 -4.95457 -5.01278)
(-0.246128 -8.10936 -5.51558)
(-0.177876 -11.1662 -6.01153)
(0.20466 -11.9704 -6.50594)
(1.07824 -10.0479 -6.67301)
(2.10115 -6.80218 -6.30527)
(2.76084 -4.13348 -5.50528)
(2.90509 -3.03266 -4.55123)
(2.99393 -3.29533 -3.54946)
(4.86093 -4.08886 -3.88954)
(-11.2107 -23.8307 -17.8722)
(-0.816804 -16.8341 -12.1136)
(2.55451 -10.077 -9.57306)
(3.48534 -4.65099 -7.14176)
(2.69057 -1.56342 -5.43972)
(1.1584 -1.52235 -4.64638)
(-0.247589 -3.88825 -4.56059)
(-1.02102 -6.60139 -4.81285)
(-0.967991 -7.57551 -4.97387)
(-0.352351 -6.30793 -4.64853)
(0.233 -3.81021 -3.86549)
(0.350323 -1.62132 -2.98922)
(-0.0294432 -0.72135 -2.40592)
(-0.56119 -1.19195 -2.32478)
(-0.805009 -2.53264 -2.64957)
(-0.5938 -4.00216 -3.08789)
(-0.150327 -4.82185 -3.37937)
(0.148834 -4.53894 -3.49486)
(0.13992 -3.50166 -3.59807)
(-0.0729189 -3.01836 -3.88067)
(-0.290765 -4.26031 -4.4384)
(-0.369687 -7.0439 -5.18182)
(-0.202732 -9.67778 -5.91975)
(0.369871 -10.285 -6.42347)
(1.29569 -8.50853 -6.37768)
(2.16578 -5.5993 -5.78727)
(2.61368 -3.21559 -4.94848)
(2.67356 -2.23347 -4.14857)
(2.84222 -2.53185 -3.36253)
(4.85374 -3.49593 -3.89333)
(-11.6478 -18.4045 -17.7005)
(-1.39397 -13.6284 -11.6047)
(2.0208 -8.4708 -9.04326)
(3.07819 -3.91061 -6.55305)
(2.31178 -1.15868 -4.81958)
(0.735574 -1.00751 -4.14652)
(-0.635704 -2.95599 -4.31889)
(-1.2242 -5.24849 -4.79848)
(-0.944252 -6.10129 -4.98355)
(-0.215899 -5.0954 -4.49769)
(0.323638 -3.06998 -3.50099)
(0.312569 -1.28819 -2.49386)
(-0.166165 -0.557928 -1.91142)
(-0.713316 -0.952103 -1.92577)
(-0.904169 -2.05969 -2.37637)
(-0.599617 -3.25938 -2.9173)
(-0.0320964 -3.90998 -3.24052)
(0.39493 -3.66438 -3.27572)
(0.430223 -2.84686 -3.20546)
(0.111579 -2.53748 -3.34807)
(-0.289935 -3.66584 -3.92814)
(-0.458917 -6.03566 -4.84845)
(-0.198956 -8.20953 -5.75074)
(0.531856 -8.62329 -6.234)
(1.48753 -7.03197 -6.01323)
(2.2137 -4.50131 -5.26449)
(2.47867 -2.41931 -4.42732)
(2.48128 -1.54566 -3.7824)
(2.75479 -1.8624 -3.19086)
(4.95972 -3.00142 -3.92462)
(-11.8685 -13.2398 -16.7872)
(-2.01084 -10.6445 -10.8321)
(1.45556 -7.04059 -8.46707)
(2.64091 -3.31406 -6.03272)
(1.93073 -0.879447 -4.3176)
(0.361205 -0.603951 -3.74012)
(-0.947968 -2.11933 -4.08678)
(-1.37176 -3.97883 -4.70705)
(-0.913621 -4.71152 -4.88495)
(-0.112003 -3.97423 -4.27521)
(0.375899 -2.42462 -3.13521)
(0.259878 -1.04973 -2.05265)
(-0.287193 -0.486983 -1.4855)
(-0.830032 -0.801097 -1.57194)
(-0.964389 -1.67194 -2.10491)
(-0.579938 -2.60134 -2.70323)
(0.0804049 -3.08736 -3.03275)
(0.595875 -2.88655 -3.0042)
(0.65559 -2.29075 -2.81762)
(0.253814 -2.14984 -2.87395)
(-0.280728 -3.15722 -3.47551)
(-0.504802 -5.11023 -4.511)
(-0.16165 -6.8328 -5.50371)
(0.686829 -7.07431 -5.9391)
(1.64246 -5.6857 -5.57976)
(2.23109 -3.53803 -4.73476)
(2.34433 -1.75015 -3.94058)
(2.32066 -0.974392 -3.45806)
(2.72522 -1.30833 -3.05077)
(5.18134 -2.64014 -4.01836)
(-11.8797 -8.69306 -15.2265)
(-2.66007 -8.03374 -9.84263)
(0.860138 -5.80472 -7.86782)
(2.17565 -2.82745 -5.58939)
(1.55005 -0.681818 -3.93528)
(0.0375564 -0.285542 -3.43234)
(-1.18162 -1.38971 -3.88058)
(-1.46025 -2.84162 -4.56511)
(-0.872349 -3.46886 -4.70766)
(-0.0364617 -2.99039 -4.00369)
(0.393714 -1.88849 -2.77874)
(0.194597 -0.894251 -1.66724)
(-0.392251 -0.487999 -1.12797)
(-0.912478 -0.726724 -1.26704)
(-0.987337 -1.37545 -1.84534)
(-0.536309 -2.05413 -2.46225)
(0.186394 -2.39172 -2.77652)
(0.752448 -2.23647 -2.69867)
(0.818408 -1.84193 -2.44414)
(0.35622 -1.84467 -2.4591)
(-0.262257 -2.72686 -3.08104)
(-0.508311 -4.28739 -4.1794)
(-0.0933164 -5.59883 -5.20038)
(0.831415 -5.70177 -5.56627)
(1.75621 -4.51973 -5.09984)
(2.21177 -2.73471 -4.21126)
(2.2026 -1.21592 -3.49682)
(2.1824 -0.522602 -3.18856)
(2.74142 -0.874743 -2.96853)
(5.51613 -2.4125 -4.22333)
(-11.6969 -5.01701 -13.186)
(-3.31574 -5.89331 -8.7124)
(0.247145 -4.76149 -7.27623)
(1.68955 -2.4149 -5.23263)
(1.17252 -0.526733 -3.67441)
(-0.237924 -0.0259415 -3.23007)
(-1.34132 -0.764142 -3.7217)
(-1.4916 -1.85763 -4.40836)
(-0.816627 -2.40333 -4.49197)
(0.0197371 -2.16586 -3.71468)
(0.386925 -1.46643 -2.44763)
(0.122703 -0.811363 -1.34157)
(-0.48098 -0.54437 -0.839418)
(-0.964504 -0.71635 -1.0162)
(-0.978576 -1.1683 -1.61114)
(-0.473467 -1.628 -2.2166)
(0.284646 -1.84025 -2.4994)
(0.868438 -1.72745 -2.38401)
(0.925267 -1.50128 -2.09921)
(0.422755 -1.61227 -2.10763)
(-0.236972 -2.36669 -2.74956)
(-0.476741 -3.57402 -3.87111)
(-0.00121044 -4.5319 -4.87352)
(0.96239 -4.53689 -5.1555)
(1.82891 -3.559 -4.60724)
(2.15459 -2.10425 -3.71573)
(2.04802 -0.819685 -3.11044)
(2.05669 -0.185757 -2.99064)
(2.78826 -0.545727 -2.9735)
(5.95589 -2.27918 -4.58948)
(-11.344 -2.34801 -10.8718)
(-3.94292 -4.26108 -7.52878)
(-0.365493 -3.8895 -6.72271)
(1.19129 -2.03757 -4.9699)
(0.800242 -0.376499 -3.53568)
(-0.470599 0.204821 -3.13982)
(-1.4358 -0.224279 -3.63147)
(-1.471 -1.02038 -4.27324)
(-0.743186 -1.51434 -4.27936)
(0.0674846 -1.4994 -3.44122)
(0.367969 -1.15246 -2.15934)
(0.0519407 -0.789427 -1.08049)
(-0.55279 -0.640925 -0.620747)
(-0.991118 -0.755224 -0.824567)
(-0.945525 -1.03982 -1.41599)
(-0.39773 -1.31762 -1.98914)
(0.373683 -1.43076 -2.22979)
(0.949033 -1.35598 -2.08596)
(0.984742 -1.26095 -1.79804)
(0.458167 -1.44079 -1.82501)
(-0.208766 -2.06451 -2.48755)
(-0.420305 -2.96216 -3.60545)
(0.105114 -3.62954 -4.55799)
(1.07646 -3.5797 -4.74894)
(1.86268 -2.80331 -4.13829)
(2.06091 -1.64494 -3.27274)
(1.8768 -0.556609 -2.79823)
(1.93437 0.0500691 -2.8815)
(2.85035 -0.284249 -3.0921)
(6.48666 -2.16311 -5.15639)
(-10.854 -0.708936 -8.49808)
(-4.50617 -3.12031 -6.37682)
(-0.959228 -3.15176 -6.23238)
(0.688823 -1.65473 -4.80452)
(0.434251 -0.193198 -3.51745)
(-0.667066 0.441569 -3.16567)
(-1.47536 0.261961 -3.62735)
(-1.40515 -0.300844 -4.19099)
(-0.649746 -0.776363 -4.10601)
(0.117239 -0.970359 -3.2126)
(0.349274 -0.930753 -1.92976)
(-0.00967364 -0.814508 -0.888586)
(-0.606771 -0.762512 -0.472608)
(-0.997244 -0.825932 -0.696247)
(-0.895839 -0.971448 -1.27161)
(-0.315758 -1.10452 -1.79992)
(0.451875 -1.14523 -1.99279)
(0.99954 -1.10489 -1.82731)
(1.00572 -1.10523 -1.55433)
(0.467537 -1.31501 -1.61647)
(-0.181398 -1.80284 -2.30096)
(-0.349405 -2.43028 -3.39944)
(0.21576 -2.86668 -4.28441)
(1.17007 -2.80448 -4.38386)
(1.85964 -2.23121 -3.72589)
(1.93259 -1.34146 -2.90571)
(1.6861 -0.413293 -2.57678)
(1.80778 0.208109 -2.87642)
(2.91462 -0.0354214 -3.34327)
(7.08968 -1.95747 -5.94372)
(-10.2673 -0.0231955 -6.26329)
(-4.97569 -2.40975 -5.32955)
(-1.51815 -2.50136 -5.82227)
(0.188243 -1.2258 -4.73452)
(0.0744706 0.0613664 -3.61436)
(-0.834066 0.723461 -3.30746)
(-1.47009 0.737097 -3.72019)
(-1.30106 0.346304 -4.18393)
(-0.535314 -0.146068 -3.9989)
(0.177408 -0.544082 -3.05117)
(0.341431 -0.777856 -1.77128)
(-0.0549117 -0.870367 -0.769303)
(-0.641624 -0.893406 -0.394869)
(-0.986831 -0.908647 -0.633373)
(-0.83627 -0.938469 -1.18606)
(-0.233734 -0.960451 -1.66388)
(0.517427 -0.954408 -1.8076)
(1.0245 -0.947425 -1.62571)
(0.996308 -1.01255 -1.37864)
(0.456046 -1.21643 -1.48567)
(-0.157333 -1.55932 -2.19338)
(-0.27272 -1.94621 -3.26486)
(0.321832 -2.20164 -4.07513)
(1.23928 -2.16691 -4.08837)
(1.82063 -1.80555 -3.39589)
(1.77067 -1.16749 -2.63431)
(1.47358 -0.368454 -2.46064)
(1.67143 0.319652 -2.98698)
(2.97235 0.267942 -3.73517)
(7.74293 -1.53808 -6.94465)
(-9.62851 -0.136052 -4.33156)
(-5.3311 -2.03646 -4.44187)
(-2.03083 -1.88735 -5.50021)
(-0.306607 -0.712836 -4.75206)
(-0.280091 0.424408 -3.81624)
(-0.977794 1.09204 -3.55923)
(-1.42895 1.24984 -3.9125)
(-1.16535 0.975943 -4.26343)
(-0.400361 0.430311 -3.97368)
(0.253384 -0.177472 -2.97069)
(0.352078 -0.665498 -1.69167)
(-0.0779828 -0.939125 -0.724305)
(-0.655626 -1.01736 -0.386154)
(-0.962298 -0.98193 -0.635451)
(-0.77197 -0.912303 -1.16272)
(-0.156927 -0.851219 -1.58949)
(0.568306 -0.822355 -1.68629)
(1.02717 -0.851284 -1.49262)
(0.963267 -0.957863 -1.27755)
(0.42893 -1.12435 -1.43375)
(-0.137005 -1.30838 -2.1648)
(-0.196034 -1.47121 -3.20637)
(0.416228 -1.58274 -3.94197)
(1.2796 -1.61149 -3.87921)
(1.7444 -1.47941 -3.1653)
(1.5746 -1.08893 -2.47301)
(1.23718 -0.394337 -2.46116)
(1.52248 0.422097 -3.21998)
(3.02045 0.69829 -4.26325)
(8.42265 -0.778826 -8.12243)
(-8.98174 -0.840275 -2.82084)
(-5.56302 -1.88948 -3.74741)
(-2.49104 -1.26013 -5.26468)
(-0.794012 -0.0833117 -4.84338)
(-0.631006 0.92981 -4.10738)
(-1.10351 1.58805 -3.90819)
(-1.3592 1.85017 -4.19741)
(-1.00384 1.64576 -4.429)
(-0.246864 1.00999 -4.03405)
(0.347123 0.175586 -2.97573)
(0.385369 -0.563534 -1.69361)
(-0.0748447 -1.0023 -0.753156)
(-0.646606 -1.11809 -0.443522)
(-0.924269 -1.02396 -0.698911)
(-0.706176 -0.86306 -1.19971)
(-0.0895454 -0.740443 -1.5782)
(0.602139 -0.710749 -1.6334)
(1.00921 -0.782293 -1.43316)
(0.911765 -0.915045 -1.25337)
(0.391499 -1.01747 -1.45881)
(-0.118446 -1.02353 -2.21077)
(-0.121698 -0.964408 -3.22057)
(0.494004 -0.954823 -3.88522)
(1.28603 -1.07858 -3.76089)
(1.62735 -1.20165 -3.04163)
(1.34207 -1.06733 -2.43043)
(0.97517 -0.458432 -2.58576)
(1.36096 0.556521 -3.57657)
(3.06189 1.32543 -4.90957)
(9.105 0.43139 -9.41076)
(-8.36714 -1.90338 -1.79698)
(-5.67307 -1.85318 -3.25787)
(-2.89775 -0.576316 -5.10551)
(-1.27402 0.687027 -4.98915)
(-0.980068 1.60491 -4.46625)
(-1.21531 2.24732 -4.33426)
(-1.26629 2.58384 -4.55847)
(-0.821481 2.40956 -4.6684)
(-0.0782053 1.64705 -4.17198)
(0.457206 0.559234 -3.06192)
(0.441957 -0.44276 -1.7748)
(-0.0432459 -1.04195 -0.853293)
(-0.611977 -1.18006 -0.562328)
(-0.871568 -1.01408 -0.816893)
(-0.640209 -0.762299 -1.28969)
(-0.0347655 -0.593268 -1.62447)
(0.616155 -0.582736 -1.64618)
(0.970726 -0.707607 -1.44638)
(0.845397 -0.859129 -1.30434)
(0.349139 -0.875785 -1.55582)
(-0.0972729 -0.680248 -2.3222)
(-0.0485768 -0.387636 -3.29575)
(0.552419 -0.265804 -3.89361)
(1.25304 -0.511001 -3.72591)
(1.4636 -0.921928 -3.02318)
(1.06913 -1.06287 -2.50953)
(0.686399 -0.525227 -2.8378)
(1.18975 0.764895 -4.05191)
(3.10521 2.20826 -5.64331)
(9.76719 2.17185 -10.7178)
(-7.81829 -3.09406 -1.2738)
(-5.67281 -1.81946 -2.96436)
(-3.25453 0.196916 -5.00507)
(-1.748 1.61125 -5.16551)
(-1.32902 2.46675 -4.86617)
(-1.31612 3.09591 -4.81054)
(-1.15399 3.48647 -4.97032)
(-0.622354 3.31063 -4.95877)
(0.101134 2.38621 -4.36898)
(0.57933 1.0111 -3.21702)
(0.519418 -0.277383 -1.9286)
(0.0174406 -1.04175 -1.02029)
(-0.548841 -1.18938 -0.7363)
(-0.801467 -0.934571 -0.979366)
(-0.573712 -0.585934 -1.42023)
(0.00515573 -0.379947 -1.7163)
(0.607245 -0.40639 -1.71535)
(0.910375 -0.598391 -1.52607)
(0.766298 -0.76817 -1.42519)
(0.307205 -0.682421 -1.71701)
(-0.0670485 -0.258915 -2.48573)
(0.0275326 0.289569 -3.41247)
(0.590803 0.52688 -3.94521)
(1.1749 0.139629 -3.75577)
(1.24555 -0.595265 -3.09992)
(0.750698 -1.0369 -2.70814)
(0.370548 -0.557822 -3.21663)
(1.01418 1.08704 -4.63521)
(3.16282 3.38666 -6.42274)
(10.3879 4.47494 -11.9336)
(-7.36119 -4.20562 -1.21841)
(-5.58229 -1.69845 -2.84052)
(-3.56894 1.07796 -4.94019)
(-2.21831 2.68843 -5.34576)
(-1.6794 3.51812 -5.27688)
(-1.40776 4.14498 -5.30503)
(-1.02456 4.57752 -5.40063)
(-0.409614 4.37516 -5.26891)
(0.286171 3.25701 -4.59836)
(0.707298 1.55831 -3.42262)
(0.613105 -0.0469604 -2.1451)
(0.106541 -0.987632 -1.24839)
(-0.454223 -1.1346 -0.957871)
(-0.710198 -0.772525 -1.17363)
(-0.50508 -0.317183 -1.57462)
(0.0287534 -0.0792733 -1.83643)
(0.572174 -0.157812 -1.8264)
(0.825774 -0.431953 -1.66194)
(0.675345 -0.624606 -1.60808)
(0.270714 -0.425121 -1.93269)
(-0.0200977 0.252282 -2.68478)
(0.113044 1.08498 -3.54521)
(0.610276 1.44979 -4.00942)
(1.04625 0.906887 -3.82304)
(0.964827 -0.185942 -3.25518)
(0.381376 -0.953732 -3.02006)
(0.0282702 -0.519148 -3.71817)
(0.840971 1.55759 -5.31045)
(3.24819 4.8741 -7.1989)
(10.9468 7.31407 -12.9415)
(-7.01424 -5.07427 -1.56101)
(-5.42821 -1.42693 -2.84737)
(-3.85174 2.06758 -4.88504)
(-2.68812 3.90128 -5.50307)
(-2.0326 4.74421 -5.66765)
(-1.49131 5.38617 -5.7839)
(-0.879184 5.85471 -5.81375)
(-0.185397 5.60647 -5.56331)
(0.472397 4.26874 -4.8289)
(0.834542 2.21426 -3.65682)
(0.717442 0.262457 -2.4126)
(0.222518 -0.867981 -1.53123)
(-0.325489 -1.00728 -1.21879)
(-0.593754 -0.521625 -1.38534)
(-0.432067 0.0506703 -1.73351)
(0.0352587 0.318367 -1.96427)
(0.508011 0.176308 -1.96148)
(0.714116 -0.193234 -1.84112)
(0.572427 -0.415883 -1.84378)
(0.243778 -0.0969746 -2.19254)
(0.0511397 0.855142 -2.90154)
(0.215216 1.99916 -3.66517)
(0.613362 2.50746 -4.05061)
(0.863038 1.80407 -3.89478)
(0.613973 0.329393 -3.46798)
(-0.0434571 -0.78133 -3.43642)
(-0.339035 -0.372468 -4.33571)
(0.676301 2.20334 -6.05801)
(3.37166 6.65202 -7.92126)
(11.4245 10.5962 -13.6322)
(-6.78942 -5.59056 -2.20803)
(-5.24206 -0.973387 -2.93982)
(-4.11646 3.14707 -4.81532)
(-3.16141 5.21503 -5.61472)
(-2.39012 6.11085 -6.01211)
(-1.56762 6.78879 -6.21703)
(-0.718379 7.2903 -6.17671)
(0.0494364 6.98109 -5.80833)
(0.65717 5.40713 -5.03028)
(0.956221 2.97692 -3.89804)
(0.827643 0.658327 -2.71967)
(0.363491 -0.672852 -1.86274)
(-0.161028 -0.801867 -1.51105)
(-0.449 -0.183347 -1.60024)
(-0.352538 0.512186 -1.87732)
(0.0245626 0.808753 -2.07876)
(0.412796 0.597009 -2.1021)
(0.573068 0.124629 -2.05022)
(0.456788 -0.134106 -2.1232)
(0.228811 0.304004 -2.48727)
(0.152203 1.54053 -3.11968)
(0.340257 3.01229 -3.74476)
(0.603506 3.67782 -4.03358)
(0.623971 2.82012 -3.93765)
(0.188774 0.960059 -3.71655)
(-0.52621 -0.490695 -3.94735)
(-0.729895 -0.0806518 -5.06116)
(0.522719 3.04207 -6.85767)
(3.53525 8.66759 -8.5462)
(11.8026 14.1607 -13.9219)
(-6.69446 -5.70257 -3.05726)
(-5.05842 -0.338883 -3.07438)
(-4.37914 4.27899 -4.71394)
(-3.64319 6.57894 -5.66804)
(-2.75391 7.56631 -6.29505)
(-1.63799 8.30102 -6.58584)
(-0.542603 8.8314 -6.4678)
(0.295666 8.44884 -5.98093)
(0.841433 6.63439 -5.18065)
(1.0718 3.82958 -4.13004)
(0.941817 1.14332 -3.05749)
(0.527782 -0.392124 -2.23816)
(0.0388305 -0.514704 -1.82809)
(-0.275075 0.233005 -1.80662)
(-0.265359 1.0491 -1.98984)
(-0.00274188 1.37319 -2.16231)
(0.286421 1.093 -2.23264)
(0.401905 0.521155 -2.27785)
(0.327483 0.225695 -2.43911)
(0.225541 0.776956 -2.81061)
(0.284282 2.28974 -3.32813)
(0.490993 4.08376 -3.76381)
(0.584514 4.91063 -3.93143)
(0.332366 3.91838 -3.92503)
(-0.308779 1.70208 -3.98275)
(-1.0654 -0.0532451 -4.54392)
(-1.14393 0.39643 -5.88657)
(0.375143 4.08416 -7.69307)
(3.72698 10.8374 -9.04813)
(12.0644 17.7871 -13.7732)
(-6.73496 -5.40946 -4.01298)
(-4.91354 0.447988 -3.21768)
(-4.65838 5.41239 -4.57809)
(-4.13985 7.93296 -5.66813)
(-3.12686 9.04905 -6.52116)
(-1.70497 9.85808 -6.89325)
(-0.352841 10.4078 -6.68767)
(0.556088 9.93987 -6.07953)
(1.03154 7.89532 -5.27597)
(1.18778 4.74588 -4.34812)
(1.06318 1.71952 -3.42255)
(0.714438 -0.0120917 -2.65485)
(0.270756 -0.141389 -2.16618)
(-0.0749134 0.712408 -1.99836)
(-0.171347 1.63228 -2.06263)
(-0.0452529 1.98069 -2.2056)
(0.131642 1.64329 -2.34467)
(0.202746 0.99156 -2.51747)
(0.183904 0.669182 -2.78798)
(0.230027 1.32255 -3.16136)
(0.441796 3.07926 -3.52525)
(0.664396 5.15668 -3.7173)
(0.559968 6.13166 -3.73532)
(-0.00186244 5.04072 -3.84602)
(-0.867316 2.54279 -4.25741)
(-1.65396 0.564437 -5.21985)
(-1.58335 1.10742 -6.80575)
(0.216498 5.33936 -8.55748)
(3.91562 13.0606 -9.43309)
(12.198 21.2173 -13.2193)
(-6.91543 -4.74485 -4.99879)
(-4.84449 1.34318 -3.35409)
(-4.97559 6.49519 -4.42655)
(-4.65936 9.22289 -5.64585)
(-3.51302 10.5057 -6.72394)
(-1.77295 11.4019 -7.17397)
(-0.15117 11.9514 -6.8708)
(0.835784 11.3831 -6.13547)
(1.24074 9.13295 -5.33979)
(1.32005 5.7015 -4.56527)
(1.20192 2.39636 -3.81899)
(0.923669 0.490063 -3.11274)
(0.527526 0.328092 -2.52552)
(0.143416 1.23963 -2.1781)
(-0.0741093 2.22793 -2.09967)
(-0.100644 2.59473 -2.21276)
(-0.0450542 2.22405 -2.44121)
(-0.0183517 1.53307 -2.77002)
(0.0262958 1.20913 -3.17135)
(0.233905 1.95059 -3.54498)
(0.610419 3.89053 -3.72283)
(0.849522 6.16994 -3.62334)
(0.532708 7.25573 -3.46489)
(-0.360576 6.11995 -3.71479)
(-1.46351 3.47134 -4.54542)
(-2.27799 1.40975 -5.9726)
(-2.05453 2.1195 -7.81516)
(0.0140885 6.83206 -9.45954)
(4.0475 15.2462 -9.75217)
(12.2006 24.1969 -12.3867)
(-7.23924 -3.74959 -5.96466)
(-4.88912 2.30813 -3.49106)
(-5.3553 7.49765 -4.30598)
(-5.21146 10.4291 -5.66469)
(-3.91772 11.9248 -6.97314)
(-1.84847 12.9189 -7.50309)
(0.0589353 13.4355 -7.0955)
(1.14219 12.742 -6.22297)
(1.48983 10.3193 -5.43163)
(1.49494 6.69651 -4.81713)
(1.3762 3.20471 -4.25987)
(1.15722 1.15544 -3.61394)
(0.797726 0.918 -2.91063)
(0.366081 1.80996 -2.35955)
(0.0194914 2.81023 -2.12128)
(-0.16565 3.18675 -2.20548)
(-0.233075 2.82168 -2.54006)
(-0.2509 2.15632 -3.04578)
(-0.143926 1.87641 -3.59636)
(0.224129 2.69276 -3.97409)
(0.76628 4.72716 -3.94889)
(1.02663 7.08159 -3.52992)
(0.504468 8.21311 -3.17729)
(-0.716987 7.10482 -3.57857)
(-2.06139 4.49844 -4.86947)
(-2.91693 2.55992 -6.80307)
(-2.56945 3.53678 -8.91357)
(-0.281798 8.63104 -10.4276)
(4.04717 17.3639 -10.1124)
(12.0867 26.5481 -11.5135)
(-7.7075 -2.43392 -6.88779)
(-5.08662 3.3431 -3.66706)
(-5.8258 8.45511 -4.30525)
(-5.80826 11.6198 -5.83968)
(-4.34768 13.4004 -7.39664)
(-1.93979 14.5102 -8.02023)
(0.272981 14.946 -7.50905)
(1.48513 14.0822 -6.48298)
(1.80662 11.5119 -5.66664)
(1.74826 7.79675 -5.17587)
(1.61177 4.22293 -4.77548)
(1.41894 2.06056 -4.16743)
(1.06675 1.68273 -3.33452)
(0.574222 2.4485 -2.57276)
(0.0995148 3.38378 -2.17073)
(-0.236326 3.76011 -2.23018)
(-0.418403 3.45609 -2.68046)
(-0.480714 2.9061 -3.37032)
(-0.324434 2.74006 -4.08129)
(0.18345 3.62577 -4.4751)
(0.87723 5.64589 -4.25742)
(1.16846 7.91051 -3.52816)
(0.475782 8.99649 -2.98258)
(-1.0376 8.00455 -3.53194)
(-2.61552 5.69236 -5.28117)
(-3.54657 4.15256 -7.72487)
(-3.14738 5.53763 -10.1145)
(-0.735612 10.9086 -11.5309)
(3.82448 19.5357 -10.708)
(11.8961 28.2925 -10.9904)
(-8.31608 -0.727089 -7.78566)
(-5.4773 4.54395 -4.00797)
(-6.42087 9.55067 -4.65472)
(-6.46655 13.059 -6.47371)
(-4.81218 15.26 -8.34414)
(-2.0558 16.5324 -9.10735)
(0.487456 16.8249 -8.5054)
(1.87761 15.7028 -7.28614)
(2.22436 12.9652 -6.35192)
(2.12244 9.21646 -5.85463)
(1.94045 5.63193 -5.48811)
(1.71609 3.35487 -4.84275)
(1.32022 2.73988 -3.86181)
(0.747019 3.24671 -2.90511)
(0.154122 4.02458 -2.35786)
(-0.308918 4.39352 -2.4044)
(-0.586169 4.22397 -2.9712)
(-0.692889 3.90253 -3.83567)
(-0.513477 3.94931 -4.71186)
(0.0918606 4.91988 -5.15439)
(0.907288 6.81868 -4.80717)
(1.24482 8.81441 -3.84073)
(0.446188 9.74668 -3.13594)
(-1.28828 8.97133 -3.80721)
(-3.08087 7.25072 -5.95076)
(-4.1478 6.45393 -8.86424)
(-3.81789 8.46086 -11.5761)
(-1.41935 14.069 -13.0601)
(3.29197 22.2202 -12.055)
(11.6993 29.8829 -11.6298)
(-9.04945 1.59394 -8.8282)
(-6.09712 6.21398 -5.01916)
(-7.18265 11.2946 -6.22282)
(-7.21397 15.4464 -8.74004)
(-5.32687 18.3509 -11.208)
(-2.20404 19.9123 -12.2806)
(0.704865 19.987 -11.6122)
(2.33832 18.4284 -10.0437)
(2.77895 15.3746 -8.66689)
(2.6609 11.5024 -7.73331)
(2.39691 7.84326 -6.99393)
(2.06227 5.35131 -6.04777)
(1.55122 4.34631 -4.83276)
(0.868439 4.43975 -3.71246)
(0.172299 4.96371 -3.08039)
(-0.381834 5.32978 -3.15196)
(-0.726288 5.38935 -3.83673)
(-0.878373 5.43299 -4.8629)
(-0.713446 5.8313 -5.93285)
(-0.0705588 6.95274 -6.53897)
(0.826054 8.67198 -6.26178)
(1.23235 10.2539 -5.26615)
(0.41484 10.9279 -4.49736)
(-1.44702 10.4704 -5.22785)
(-3.43374 9.65983 -7.62368)
(-4.72502 10.0253 -10.9742)
(-4.62718 13.0186 -14.2655)
(-2.39851 19.0525 -16.4395)
(2.40218 26.6266 -16.1724)
(11.5723 32.679 -16.0074)
(-9.86935 5.01748 -10.7151)
(-6.95387 9.11095 -8.49706)
(-8.15511 14.9389 -12.0592)
(-8.09031 20.4819 -16.7993)
(-5.91513 24.7188 -20.9668)
(-2.38602 26.8866 -22.9541)
(0.939998 26.6591 -22.2411)
(2.89074 24.2854 -19.7225)
(3.49772 20.4428 -16.7734)
(3.39198 15.967 -13.9855)
(3.00753 11.8074 -11.5386)
(2.47758 8.74742 -9.38025)
(1.76957 7.07965 -7.55154)
(0.937645 6.58301 -6.27365)
(0.148824 6.77525 -5.71406)
(-0.45816 7.17518 -5.93695)
(-0.84154 7.58969 -6.7833)
(-1.04303 8.16787 -8.01354)
(-0.934575 9.12643 -9.44596)
(-0.316526 10.5842 -10.6267)
(0.625873 12.2156 -11.0286)
(1.13119 13.3663 -10.5635)
(0.3819 13.7198 -9.9685)
(-1.52352 13.6636 -10.6222)
(-3.70196 14.0684 -13.0321)
(-5.32885 16.1305 -17.0117)
(-5.63751 20.8212 -21.998)
(-3.69886 28.067 -27.0369)
(1.22574 35.696 -30.2516)
(11.4663 39.8448 -32.6303)
(1.96492 -147.554 -92.5311)
(21.1102 -115.148 -84.3863)
(25.4159 -81.1312 -68.9203)
(21.0005 -56.659 -58.4914)
(14.9341 -42.9558 -51.7053)
(9.53599 -38.8409 -44.4629)
(4.2161 -41.6921 -36.437)
(-0.750663 -46.8104 -31.2462)
(-3.07099 -49.2295 -31.3266)
(-1.79004 -45.9891 -33.9812)
(1.28132 -38.3561 -35.8424)
(3.479 -30.2095 -34.7269)
(3.15988 -24.993 -31.0551)
(0.871349 -24.0896 -27.1434)
(-1.43508 -26.8547 -24.6181)
(-2.52187 -31.2528 -23.7454)
(-2.99557 -34.7979 -24.5319)
(-4.17098 -36.3681 -27.8589)
(-5.49765 -37.0234 -34.8294)
(-5.21626 -39.3965 -42.54)
(-3.3615 -45.4553 -46.7241)
(-1.93747 -54.5592 -46.4857)
(-2.00695 -63.4483 -45.6758)
(-1.29341 -67.8907 -48.4213)
(2.71642 -65.0533 -52.5037)
(8.75181 -56.0266 -52.7268)
(13.0025 -45.0211 -46.7362)
(13.2668 -36.1167 -37.0064)
(11.7132 -30.5095 -27.9184)
(14.3758 -26.231 -23.3695)
(-3.29723 -138.391 -59.7991)
(15.1772 -103.764 -60.0156)
(20.579 -70.2273 -52.1111)
(17.9679 -46.3363 -46.1519)
(13.3941 -33.2685 -41.7442)
(9.05287 -30.5759 -35.3654)
(4.37569 -35.5289 -27.0456)
(-0.436806 -42.3425 -21.004)
(-3.12178 -45.1223 -20.5275)
(-2.43493 -41.1912 -23.694)
(0.248388 -32.6284 -26.9075)
(2.47251 -24.1079 -27.3307)
(2.5435 -19.2802 -24.794)
(0.793454 -19.1721 -21.285)
(-1.07367 -22.7267 -18.461)
(-1.97993 -27.6713 -16.8251)
(-2.49604 -31.2965 -16.8197)
(-3.69815 -32.1734 -19.6907)
(-4.86528 -31.2664 -26.1989)
(-4.30138 -32.0632 -33.0734)
(-2.20668 -37.5754 -35.8807)
(-0.737411 -47.3064 -33.8957)
(-1.07727 -56.9814 -31.417)
(-1.04577 -61.2198 -33.1385)
(2.01685 -57.3787 -37.5974)
(7.28692 -47.673 -39.6625)
(11.328 -37.1433 -36.2001)
(11.9039 -29.7489 -28.6665)
(10.7559 -25.9741 -20.9375)
(13.3825 -23.481 -16.9478)
(-7.98416 -130.777 -46.7933)
(10.1934 -94.3718 -48.3145)
(16.7144 -61.2582 -43.0807)
(15.6306 -37.9586 -38.4077)
(12.0711 -25.4412 -34.6771)
(8.27544 -23.8636 -29.1216)
(3.99362 -30.4671 -21.7628)
(-0.506492 -38.6526 -16.2924)
(-3.14765 -41.7562 -15.7607)
(-2.69065 -37.283 -18.6197)
(-0.302296 -28.0021 -21.6235)
(1.76933 -19.2101 -22.2079)
(1.94762 -14.6952 -20.1886)
(0.511451 -15.2113 -17.2622)
(-1.00707 -19.3736 -14.8448)
(-1.66704 -24.7418 -13.3267)
(-2.02998 -28.4404 -13.1363)
(-3.03896 -28.7509 -15.5123)
(-3.98908 -26.6219 -21.0159)
(-3.36619 -26.2089 -26.7421)
(-1.39723 -31.3199 -28.8395)
(-0.0794556 -41.5487 -26.7313)
(-0.51924 -51.8096 -24.265)
(-0.736467 -55.865 -25.6267)
(1.75624 -51.2078 -29.6669)
(6.34201 -40.9371 -31.9325)
(9.99976 -30.7466 -29.5267)
(10.6829 -24.5064 -23.4829)
(9.85739 -22.1899 -17.0064)
(12.4269 -21.164 -13.6573)
(-12.237 -122.985 -45.2271)
(6.19538 -86.2589 -43.988)
(13.6715 -54.0466 -38.5532)
(13.8248 -31.5391 -33.4482)
(10.8969 -19.5696 -29.4956)
(7.25764 -18.7284 -24.7212)
(3.1821 -26.3169 -18.9639)
(-0.883806 -35.3264 -14.829)
(-3.15573 -38.6344 -14.5248)
(-2.63862 -33.899 -16.6266)
(-0.47257 -24.323 -18.5644)
(1.30948 -15.5176 -18.5483)
(1.37944 -11.2867 -16.6843)
(0.0842629 -12.2067 -14.4109)
(-1.16181 -16.7016 -12.7606)
(-1.5368 -22.2563 -11.8362)
(-1.601 -25.9327 -11.8137)
(-2.24912 -25.8425 -13.6891)
(-2.94541 -22.9588 -17.9335)
(-2.44088 -21.8078 -22.3957)
(-0.878845 -26.6222 -24.1853)
(0.140821 -37.0305 -22.8488)
(-0.259264 -47.4773 -21.3083)
(-0.377099 -51.2844 -22.6942)
(1.85739 -46.1088 -25.9032)
(5.83918 -35.5881 -27.4628)
(8.98539 -25.7397 -25.2637)