/*--------------------------------*- C++ -*----------------------------------*\
| =========                 |                                                 |
| \\      /  F ield         | OpenFOAM: The Open Source CFD Toolbox           |
|  \\    /   O peration     | Version:  2106                                  |
|   \\  /    A nd           | Website:  www.openfoam.com                      |
|    \\/     M anipulation  |                                                 |
\*---------------------------------------------------------------------------*/
FoamFile
{
    version     2.0;
    format      ascii;
    arch        "LSB;label=32;scalar=64";
    class       volSymmTensorField;
    location    "1464";
    object      epsilon;
}
// * * * * * * * * * * * * * * * * * * * * * * * * * * * * * * * * * * * * * //

dimensions      [0 0 0 0 0 0 0];

internalField   nonuniform List<symmTensor> 
9000
(
(130779 2363.61 802.247 202328 -167030 -681316)
(21587.1 -38.0792 80868.6 219717 -133601 -610719)
(1298 1088.89 97226.6 186921 -95569.2 -494558)
(-5456.66 1019.01 79346 160797 -66788.5 -414248)
(-6087.97 514.057 56607.1 142259 -50401.1 -362522)
(-5749.04 -1.65024 37412.9 122643 -45253.8 -312581)
(-5816.68 -290.316 18106 101415 -48178 -261054)
(-4485.03 -271.677 -985.248 87084.4 -53758.5 -229133)
(-1084.86 -18.2305 -10639.9 85616.3 -56396.4 -230290)
(2164.64 296.61 -6384.45 91071.6 -52768.9 -245799)
(3030.2 456.945 5245.29 95411.1 -44103.1 -254274)
(1352.81 364.899 14074.5 92974.7 -34745.6 -243207)
(-1175.9 102.562 13420.2 84232.7 -28718.9 -216836)
(-2486.66 -162.846 4948.47 74407.6 -27700.4 -190809)
(-2103.03 -278.111 -4067.03 67606.2 -30951.6 -175463)
(-1368.16 -196.625 -8952.21 65045.3 -35978.5 -171709)
(-1529.68 -32.168 -11931.8 67271.1 -39916.9 -178594)
(-1804.4 83.4177 -17699.2 76403.4 -41728.9 -201388)
(-572.445 67.5311 -23475.6 94433.7 -42568.6 -247477)
(1556.47 -108.979 -22040.2 114025 -45372 -299113)
(2219.67 -338.943 -13948.6 125039 -52303.1 -329503)
(894.516 -450.317 -7869.2 125369 -62612.8 -332544)
(246.138 -339.87 -8409.51 123877 -72656.9 -331650)
(2508.17 -33.2892 -6356.97 130148 -77668.6 -351513)
(5749.61 303.392 8876.74 139333 -74536.6 -376565)
(6227.61 489.155 32700.5 139473 -64459.7 -373681)
(3166.9 488.321 50112.4 124730 -52060.4 -329426)
(-127.426 423.881 52147.3 100102 -41835 -261445)
(2541.29 400.364 45219.5 74239.8 -35131.1 -197828)
(30770.8 -253.271 27621.1 51927.4 -29164 -169342)
(86533.8 4186.23 -10310.4 101429 -352390 -400818)
(19910.9 1103.92 53271 118631 -262445 -395785)
(2587.35 1909.02 73714.5 107272 -176074 -343866)
(-3602.84 1719.63 64400.5 96171.4 -111978 -304160)
(-4591.64 100.236 49013.9 87321.3 -76771.3 -274583)
(-4747.19 -1891.44 35148.9 74777.6 -70821 -232813)
(-5316.8 -2704.43 19076.6 58714.4 -86358 -179051)
(-4535.15 -1724.39 701.276 46591.7 -106307 -140118)
(-1573.02 152.417 -10842.7 44406.4 -113875 -136834)
(1610.64 1596.33 -9601.36 49375.1 -102499 -156795)
(2788.43 1805.87 90.7807 55099.9 -78474.6 -177013)
(1554.6 869.691 9097.84 56157.4 -55206.7 -179382)
(-657.61 -399.432 10435.3 51764.3 -42869 -162836)
(-1920.69 -1259.9 4655.62 45118 -43840.6 -140117)
(-1733.96 -1395.79 -2211.02 39389.9 -54677.9 -121885)
(-1257.49 -795.177 -6268.92 36037.7 -68622.7 -111464)
(-1516 281.918 -9532 36305 -78098.6 -111733)
(-1685.09 1427.49 -15496.4 42380.5 -79385.1 -130566)
(-320.16 1842.13 -20512.8 54982.4 -74808.5 -172720)
(1811.8 868.714 -17628.1 68007 -74724.8 -217248)
(2333.87 -858.113 -8243.44 73684.1 -88517.6 -235819)
(750.008 -1826.97 -1869.43 70839.8 -115046 -223773)
(-279.357 -1115.26 -3769.19 66849.4 -141613 -208464)
(1593.19 573.251 -5170.25 69658.3 -152401 -219730)
(4743.35 1636.63 5319.05 77106.4 -140950 -248092)
(5598.25 1295.59 25365.1 80437.4 -114746 -260775)
(3144.46 136.842 41768 73964 -88006.8 -237844)
(219.766 -728.389 45306.8 59620.8 -70656.8 -188617)
(2510.54 -843.464 40400.4 43125.2 -62846.9 -137215)
(23231.3 -1116.79 25127.2 28491.4 -56483.4 -114867)
(75978.7 4569.23 -17863.2 46351.7 -409242 -306358)
(19038.4 4865.5 34915 60545 -291377 -311858)
(3811.64 4612.01 58899.8 59004.7 -186798 -279810)
(-2203.95 3395.48 55427.8 55363.8 -110891 -250215)
(-3660.67 192.51 43896.7 51671 -69942.1 -226026)
(-4170.75 -3565.06 32098.2 44009.6 -66220.4 -189821)
(-4912.32 -5122.47 17562.7 32652.6 -90289.1 -141961)
(-4350.36 -3278.82 445.456 23306.3 -118872 -106305)
(-1690.1 332.715 -10874.8 21115.4 -129127 -102527)
(1310.28 3113.55 -10507.1 25040.4 -113473 -120795)
(2540.57 3502.2 -1975.96 30293.1 -81858.1 -140254)
(1536.34 1742.59 6395.37 32465.6 -52607.4 -144246)
(-418.925 -616.219 8097.82 30490.2 -38512 -131370)
(-1550.18 -2224.43 3501.24 26232.8 -41595.5 -112438)
(-1398.89 -2562.97 -2015.06 21954.4 -56636 -96616.5)
(-1027.58 -1598.15 -5086.02 18900.5 -74965.1 -86631.5)
(-1321.98 343.221 -7713.76 18343.5 -86841.9 -85436.5)
(-1467.29 2489.71 -12887.3 22217.6 -86665.6 -100955)
(-168.734 3239.52 -17038.1 30493.8 -77322.4 -136652)
(1796.03 1381.12 -13945.2 38576.9 -73504.6 -173707)
(2206.62 -1875.15 -5092.8 41032.1 -89131.7 -187311)
(608.496 -3668.24 670.483 37344.5 -123081 -173775)
(-510.867 -2253.97 -1598.59 33120.7 -157351 -157839)
(1092.9 1068.12 -3946.12 34253.8 -170054 -166473)
(4020.2 3272.23 4287.4 39946.9 -153581 -192400)
(4998.68 2776.62 21588 44142 -119772 -207050)
(2986.54 586.337 36418.5 42161 -88092 -191665)
(435.657 -1215.65 40324 34385 -70472.1 -152577)
(2450.43 -1631.15 36768.4 24299.5 -65475.4 -109657)
(20726.1 -1327.32 23160.3 14691.4 -62620.9 -91358.4)
(74913.1 4690.25 -23947.4 38470.1 -409594 -295599)
(18985.4 8274.79 22174.1 43130.5 -281372 -283711)
(4762.4 6864.25 48639.6 39785.3 -172990 -250906)
(-1246.75 4649.02 49363.9 35959.2 -95605.2 -218673)
(-3220.75 220.547 39760.8 33076.7 -54381.3 -193103)
(-3954.34 -4859.94 28172.8 28571.4 -53101.9 -161795)
(-4558.4 -6989.02 14246.2 22178.2 -82073.4 -123964)
(-3909.66 -4495.99 -1133.68 16813.9 -115259 -96671.5)
(-1447 462.164 -10795.1 15436.6 -126851 -94324.2)
(1230.4 4283.58 -9969.83 17437.8 -109232 -107868)
(2263.08 4808.94 -2217.75 19959.5 -74565.7 -120662)
(1307.21 2431.28 4932.91 20684.2 -43440.5 -120893)
(-424.081 -740.06 6006.17 19267.7 -29447 -108996)
(-1341.26 -2909.84 1747.02 16816.6 -34080.1 -94187.3)
(-1089.87 -3421.21 -2832.72 14579 -51131.4 -83218.8)
(-687.346 -2221.51 -4789.42 13106.9 -71231.8 -76964.2)
(-948.018 353.898 -6159.53 12981.6 -83842.3 -76775.2)
(-1139.08 3241.24 -9831.79 15358.8 -82287.9 -89101.3)
(-106.085 4205.65 -12992.4 19991.1 -69781.4 -116874)
(1513.53 1655.31 -10489.6 24382.1 -63201.8 -145995)
(1837.07 -2746.78 -3394.2 25739.9 -78799.9 -157645)
(470.814 -5125.76 1137.43 23940 -115494 -148894)
(-453.023 -3134.59 -863.576 22119.3 -152560 -138698)
(980.765 1474.67 -2571.59 23277.5 -165284 -147440)
(3532.33 4606.64 4884.16 26732.2 -146035 -168172)
(4381.01 4045.73 19911.1 29036.7 -109216 -178460)
(2662.5 1085.01 32660.7 27706.6 -76700.6 -164442)
(509.519 -1468.37 36168.1 23063.8 -60802 -131909)
(2453.02 -2181.48 33525.3 16901.8 -59000.7 -96260.6)
(19509.4 -1337.33 21522.5 10203.9 -60086.4 -82177.7)
(78178.1 4685.62 -29123.2 48808.2 -385785 -318931)
(19412.8 10111.4 13094.5 41421.7 -259447 -277901)
(5428.15 7999.83 41042.1 32263.4 -154680 -235633)
(-638.279 5185.68 44802.4 25753.4 -80204.2 -196233)
(-3125.14 128.934 36013.7 22261.2 -40671.1 -167056)
(-3980.45 -5618.58 23620.4 20024.8 -40856.6 -140407)
(-4228.45 -8039.26 9803.1 18120.3 -71505.3 -114025)
(-3275.46 -5188.24 -3532.9 16737.9 -106147 -97025.6)
(-940.399 517.312 -10656.5 16396.3 -118147 -96864)
(1305.62 4901.54 -8583.34 16380.8 -100268 -104498)
(1959.91 5486.29 -1404.78 15692.1 -65524.8 -108365)
(928.719 2782.06 4178.68 14248 -34856.8 -102769)
(-597.249 -800.949 4060.07 12672.4 -21645.2 -90731.9)
(-1243.64 -3248.72 -333.009 11610.3 -27026.6 -80047.6)
(-802.309 -3846.2 -4212.62 11375.5 -44498.5 -74739.1)
(-274.006 -2534.03 -4997.79 11750.4 -64679.2 -73429.3)
(-448.683 367.16 -4756.15 12461.1 -77043.2 -75258.7)
(-735.258 3623.3 -6519.6 13741.6 -74618.8 -84495.2)
(-111.413 4654.19 -8643.42 15379.5 -60845.1 -103983)
(1038.38 1710.97 -7215.39 16949.4 -53130.9 -125290)
(1297.4 -3281.07 -2587.36 18078.5 -68207.1 -136358)
(344.544 -5919.13 374.602 18872.2 -104924 -134841)
(-177.297 -3560.48 -948.927 20046.1 -141781 -132759)
(1154.21 1773.48 -1056.36 21811.6 -153559 -142651)
(3214.77 5416.85 6509.27 23137.8 -133210 -157162)
(3746.83 4824.98 19548.6 22840.7 -96095.4 -160610)
(2213.14 1447.21 29918.4 20766.9 -64458.8 -145421)
(481.731 -1531.71 32568.4 17686.2 -50227.6 -117811)
(2533.64 -2432.13 30586.2 14109.6 -50558.9 -88832.9)
(19013.8 -1244.27 20214.6 9412.02 -54583.5 -79301.3)
(82775.6 4453.1 -33528.6 63044.8 -346879 -350829)
(19983 10147.4 6217.41 44507.9 -232154 -279079)
(5876.11 7946.57 34958.8 29096.7 -136328 -225197)
(-262.565 5045.67 40940.2 19665.9 -67353.9 -178058)
(-3219.75 -47.5752 32399.1 15362.9 -30421 -145112)
(-4127.98 -5836.35 18799 14800 -31006 -122780)
(-3908.63 -8274.61 4890.83 16494.4 -60715.4 -107454)
(-2538.88 -5346.11 -6291.31 18457.3 -94306 -100660)
(-292.598 506.681 -10501.1 19059.6 -105987 -102715)
(1465.06 4971.47 -6831.81 17335.3 -89171.9 -104388)
(1646.92 5538.72 -121.627 13829.5 -56578.8 -99196.3)
(476.843 2791.63 3779.43 10359.3 -28022.2 -87520.3)
(-856.181 -814.599 2253.46 8418.53 -15983.5 -74975.2)
(-1207.55 -3263.1 -2478.27 8375.68 -21418.3 -68091.1)
(-534.072 -3852.6 -5785.66 9794.96 -38087.1 -68264.5)
(167.2 -2530.83 -5413.91 11788.9 -57086.4 -71908.9)
(103.476 398.246 -3453.73 13316.7 -68492.1 -75923)
(-307.637 3656.59 -3202.41 13794 -65703.4 -82302.3)
(-163.08 4616.55 -4345.69 13151.5 -52281.7 -94065.8)
(465.635 1579.31 -4213.25 12682.2 -44860.8 -108347)
(682.742 -3460.21 -2296.77 13914.5 -59206.7 -119492)
(240.2 -6044.56 -973.596 17069.7 -94011.1 -125549)
(226.468 -3529.59 -1393.01 20866.5 -128515 -131696)
(1491.92 1968.04 549.869 23271.4 -138711 -142833)
(3004.05 5692.25 8669.47 22854.3 -118552 -151132)
(3119.57 5081.36 19937.7 20198.2 -83067.1 -147409)
(1705.94 1624.57 27875.3 17090.6 -53339.7 -130342)
(410.006 -1445.98 29492.4 14795 -40440.7 -106779)
(2692.25 -2399.3 28092.2 12908 -41813.1 -83821.2)
(18944.2 -1067.14 19296.5 9504.51 -47773 -78756.3)
(86589.8 3943.27 -37241 74455.4 -297180 -376802)
(20447.1 8636.17 364.731 47508.6 -201418 -279362)
(6192.59 6903.1 29562.6 27158.6 -118586 -215704)
(-10.3754 4390.37 37251.8 15544.2 -56840.5 -162299)
(-3373.28 -263.995 28792 10689.3 -22979.5 -126377)
(-4294.8 -5606.5 14039 11310.4 -23133.2 -107841)
(-3590.75 -7843.92 62.6929 15548.5 -50033.6 -102071)
(-1785.7 -5058.48 -9018.18 19930.6 -80754.5 -104146)
(383.718 453.455 -10350.4 21229.7 -91593.5 -107998)
(1646.08 4604.77 -5090.84 18275.3 -76788 -104327)
(1340.85 5091.46 1186.65 12732.3 -47916.9 -91182.6)
(19.5622 2525.34 3477.29 7760.07 -22642.8 -74199.3)
(-1129.93 -796.901 596.395 5483.4 -12067.9 -61179.2)
(-1190.95 -3024.16 -4479.27 6119.72 -17071.6 -57556.2)
(-283.454 -3526.24 -7263.71 8713.78 -32066.6 -62452.4)
(595.813 -2271.56 -5806.12 11879.9 -48987.7 -70356.4)
(641.173 447.002 -2221.47 14008.4 -58938.8 -76223.9)
(94.7328 3414.53 -100.403 13927.9 -56167.4 -80094.3)
(-241.856 4201.24 -405.559 11745.7 -44232.1 -85305.6)
(-117.601 1313.64 -1577 9972.66 -38069.6 -93816.9)
(80.3249 -3343.5 -2240.44 11403.4 -51507.7 -105341)
(167.3 -5631.49 -2407.26 16289.7 -83043.3 -118123)
(676.181 -3135.33 -1841.71 21931.7 -113729 -131334)
(1884.18 2073.15 2194.76 24752.5 -121955 -143276)
(2844.74 5525.87 10965.1 23071.3 -102908 -145967)
(2523.89 4894.74 20634.2 18697.6 -70382.1 -135945)
(1205.91 1620.42 26291.7 14754.8 -43267.6 -117290)
(349.644 -1273.12 26937.1 12846.8 -31496.3 -97287.9)
(2933.76 -2166.86 26190.8 11961.8 -33186.3 -79600.4)
(19123.4 -822.909 18832.8 9220.32 -40509.4 -78594.8)
(88214.5 3203.73 -40324.4 80158.8 -241298 -388810)
(20647.8 6059.31 -5301.25 48347.5 -169100 -274692)
(6453.22 5192.52 24297.3 25178.9 -101806 -205446)
(204.102 3418.42 33422.2 12459 -48216.5 -148238)
(-3490.41 -481.209 25141.5 7422.66 -17574.4 -110511)
(-4407.24 -5062.04 9584.35 8797.74 -16745.4 -95134.3)
(-3269.14 -6953.03 -4286.38 14548 -39714.2 -96883.8)
(-1080.6 -4456.16 -11425.1 20373.6 -66464.1 -105846)
(1003.01 383.543 -10202.3 22070.5 -76159.1 -110834)
(1801.49 3955.1 -3602.65 18388.1 -63924.7 -102754)
(1054.01 4317.79 2229.54 11675.2 -39686 -83365.4)
(-393.665 2077.41 3104.05 5839.23 -18380.6 -62353.9)
(-1367.27 -760.818 -903.737 3357 -9455.08 -49106.5)
(-1163.35 -2619.96 -6197.02 4377.83 -13751.8 -48114.4)
(-48.9149 -2980.64 -8454.95 7653.03 -26556.5 -56691.5)
(982.024 -1843.39 -6019.55 11489.7 -40873.8 -67807.9)
(1113.95 505.172 -1041.04 13938 -49100.9 -74945.3)
(435.37 2990.28 2634.55 13506.8 -46594.2 -76715)
(-332.63 3545.05 2971.21 10474.5 -36781.9 -76838.1)
(-646.027 973.219 634.619 8045.9 -32373.4 -81033.2)
(-445.152 -3021.12 -2224.12 9665.41 -44751.8 -93043.4)
(132.048 -4861.06 -3587.44 15552.8 -72228.2 -111119)
(1109.34 -2509.9 -2059.46 22174.9 -98299.2 -129615)
(2247.63 2103.92 3833.3 25103.3 -104421 -141674)
(2693.86 5049.13 13110 22619.3 -87062.4 -139642)
(1976.99 4391.76 21313 17256.5 -58246.7 -124770)
(761.67 1466.23 24974.1 12856.3 -34129.2 -105325)
(342.811 -1076.48 24873.6 11152.5 -23392.7 -88677.8)
(3270.27 -1843.62 24961.1 10747 -25060.5 -75547.3)
(19491.1 -537.327 18871.8 8155.84 -33641.2 -78171.9)
(86914.4 2347.68 -42807.9 79431.7 -184205 -383451)
(20503 2972.67 -11241.3 46422 -137305 -263493)
(6708.24 3167.31 18864.2 22773.4 -86424.6 -193928)
(436.467 2317.44 29311.2 10027 -41157.9 -135682)
(-3513.93 -672.103 21445.7 5129.81 -13634.1 -97363.5)
(-4421.23 -4337.48 5580.9 6887.99 -11526.2 -84484.8)
(-2939.67 -5807.15 -7927.03 13266.9 -30085.4 -91609.6)
(-462.821 -3674.27 -13334.1 19669.2 -52405.1 -105293)
(1512.46 318.705 -10033.8 21479.9 -60859.2 -110673)
(1901.84 3174.79 -2475.58 17502.7 -51422.2 -99178.4)
(792.702 3391.28 2869.01 10391.9 -32139.4 -75388.6)
(-734.705 1544.87 2577.92 4286.89 -15043 -51765)
(-1538.83 -714.496 -2244.29 1757.75 -7833.69 -38627.6)
(-1107.01 -2134.48 -7563.12 2931.42 -11317.7 -39646)
(170.549 -2328.13 -9263.47 6455.27 -21730 -50802.8)
(1308.11 -1335.74 -5977.05 10506.2 -33255.7 -63991.4)
(1491.82 561.491 93.9138 13008.7 -39697.3 -71743.5)
(693.479 2473.75 4924.17 12392.9 -37587.6 -71826.6)
(-425.027 2778.94 5686.2 9081.81 -30112.7 -68352.1)
(-1080.24 611.008 2402.53 6513.96 -27570.7 -69659)
(-855.743 -2586 -2138.62 8273.22 -38782.1 -82161.9)
(136.469 -3914.45 -4335.39 14502.5 -61914.6 -103943)
(1486.16 -1786.67 -1929.04 21337.4 -83162.2 -125804)
(2529.73 2071.76 5428.28 24080.4 -87273.4 -137249)
(2522.77 4391.89 14932.2 21171.2 -71892.2 -131437)
(1486.7 3704.4 21768.4 15459.5 -47041.7 -113304)
(401.373 1206.64 23774.8 10990.8 -25998.8 -94052.8)
(414.194 -905.679 23240.5 9443.07 -16236.3 -80772.1)
(3717.65 -1530.57 24397.4 9176.41 -17832.2 -71680.5)
(20099.6 -239.566 19433.7 6418.48 -27923.2 -77788.2)
(82543.8 1510.98 -44677.8 72835.9 -130491 -360807)
(19986 -98.4767 -17574.8 41960.2 -107961 -245913)
(6977.61 1145.33 13177.4 19995.6 -72787.3 -181370)
(712.757 1236.33 24905.8 8123.7 -35386.4 -124702)
(-3419.55 -823.913 17730.9 3576.47 -10731.8 -86876)
(-4318.04 -3547.48 2088.81 5414.79 -7263.16 -75886.2)
(-2599.46 -4578.36 -10770.6 11747.1 -21425.3 -86415)
(51.5207 -2829.31 -14664.2 18051.5 -39355.4 -102783)
(1889.64 273.085 -9808.01 19743.3 -46635.8 -107837)
(1934.28 2388.07 -1708.58 15787.6 -39973.5 -93813.3)
(557.821 2456.16 3093.33 8861.16 -25525.4 -67288.2)
(-994.637 1010.83 1889.41 2954.54 -12526.1 -42356.9)
(-1634.87 -661.349 -3425.49 524.473 -6991.62 -29669.5)
(-1015.79 -1635.57 -8567.14 1690.34 -9677.01 -32154.9)
(375.142 -1662.06 -9672.87 5131.85 -17738.5 -44883)
(1567.19 -824.164 -5666.53 9039.38 -26550.4 -59085.9)
(1763.72 605.428 1179.71 11386.9 -31305.3 -66846.9)
(862.778 1938.15 6751.93 10709.4 -29636.8 -65623.5)
(-513.092 2008.23 7729.84 7536.97 -24403.6 -59888)
(-1404.48 267.556 3739.91 5196.04 -23570 -59561.8)
(-1137.92 -2116.5 -1945.97 7042.36 -33554 -72526.2)
(178.617 -2941.91 -4606.01 13112 -52444.8 -96545.8)
(1787.45 -1076.92 -1432.47 19580.3 -69104.2 -120024)
(2706.17 1983.67 6948.19 21911.4 -71472.5 -130213)
(2316.39 3659.75 16355.1 18841.8 -58151.9 -121482)
(1052.8 2944.42 21896.5 13249.5 -37158.2 -101539)
(134.364 887.499 22587.9 9025.38 -19023.6 -83438.7)
(571.347 -789.454 21951 7672.92 -10148.8 -73696.4)
(4291.01 -1299.45 24418.9 7407.45 -11782.9 -68433.5)
(21087.5 44.8089 20506.8 4416.86 -23819.8 -78383.8)
(75422.6 815.687 -45892.3 61671 -83831.7 -323444)
(19109.8 -2727.12 -24163.7 35633.8 -82515.1 -223216)
(7253.59 -626.824 7299.4 17093.3 -61032.1 -168367)
(1034.87 274.609 20268.9 6743.69 -30601.3 -115489)
(-3207.14 -936.847 14033.6 2645.36 -8513.35 -79043.8)
(-4097.51 -2777.65 -894.961 4335.07 -3768.5 -69438.5)
(-2246.71 -3392.13 -12830 10163.9 -13875.1 -81723.7)
(463.914 -2008.74 -15407 15909 -27793.9 -99043.7)
(2135.68 252.152 -9481.64 17311.4 -34084 -103146)
(1899.09 1679.3 -1226.57 13562.8 -30023.4 -87275.7)
(346.588 1613.45 2978.27 7186.43 -20006.1 -59337.2)
(-1178.95 535.964 1080.79 1787.75 -10756.9 -34148.9)
(-1660.61 -601.057 -4448.06 -430.403 -6771.6 -22198.4)
(-892.629 -1169.85 -9238.42 635.598 -8743.12 -25717.6)
(564.254 -1048.75 -9722.29 3777.29 -14658.3 -39187.8)
(1760.6 -362.94 -5121.39 7300.06 -21013.8 -53530.9)
(1933.14 629.148 2206.05 9353.32 -24284.4 -60809.7)
(948.022 1434.46 8144.63 8693.25 -23041 -58601.6)
(-594.342 1305.13 9153.42 5920.99 -19760.5 -51692.5)
(-1621 -30.1756 4681.13 4031.73 -20314.2 -50744.1)
(-1296.8 -1667.95 -1658.54 5928.96 -29045.6 -64142.1)
(253.411 -2048.74 -4447.95 11521.6 -44045.3 -89210.2)
(2009.59 -459.136 -621.673 17256.7 -56633.3 -112895)
(2774.29 1842.68 8364.8 19030.6 -57633.6 -121342)
(2070.53 2924.48 17368.3 15950.3 -46336.9 -110401)
(669.594 2191 21666 10753.4 -28876.4 -89821.1)
(-44.0575 547.951 21341.7 6978.5 -13326.6 -73680.1)
(808.23 -734.013 20904.9 5914.76 -5194.2 -67751.6)
(5000.6 -1181.04 24891.5 5719.51 -6994.22 -66461.4)
(22636.7 299.289 22047.9 2707.2 -21382.8 -81227.6)
(66197 347.07 -46409.4 47587.9 -46714.9 -275498)
(17916.1 -4619.04 -30715.1 28294.9 -61815.6 -197274)
(7507.94 -1987.31 1373.95 14364.2 -51074 -155637)
(1388.06 -515.295 15493.5 5924.07 -26460.3 -108245)
(-2891.22 -1020.06 10388.1 2289.89 -6649.48 -73884.4)
(-3770.76 -2083.64 -3413.08 3677.72 -829.557 -65294.4)
(-1880.51 -2326.93 -14179.7 8740.7 -7409.28 -78063.7)
(787.039 -1269.7 -15601 13659.3 -17886.6 -94978.8)
(2267 253.179 -9012.21 14658.8 -23443.1 -97619.9)
(1805.33 1092.47 -915.621 11182.4 -21750.3 -80354.2)
(154.449 919.334 2647.68 5520.21 -15628.2 -51922.2)
(-1301.86 156.583 224.517 786.176 -9658.14 -27217.7)
(-1630.81 -530.762 -5311.32 -1146.95 -7040.95 -16207.7)
(-746.394 -762.847 -9628.1 -213.747 -8411.67 -20445)
(736.556 -526.939 -9482.51 2517.19 -12471.8 -34041.2)
(1894.83 15.7027 -4400.91 5523.79 -16727.3 -47874.4)
(2012.86 627.745 3159.3 7207.21 -18768.6 -54317.7)
(960.932 991.42 9153.47 6603.67 -17901 -51377)
(-668.526 710.134 10041.5 4357.31 -16191.1 -44106.3)
(-1743.36 -266.752 5271.66 3029.08 -17735.5 -43290)
(-1349.24 -1270.72 -1317.09 4967.64 -25206.1 -57118.5)
(353.643 -1293.89 -3962.59 9939.18 -36783.7 -82376.7)
(2158.7 21.9582 411.626 14769.6 -45952.1 -105255)
(2745.18 1648.6 9650.9 15915.5 -46009.1 -111651)
(1788.31 2223.75 17997.3 12873.1 -36653.9 -99037.9)
(328.666 1488.78 21087.5 8173.32 -22320.3 -78671.5)
(-146.855 217.093 19986.9 4944.86 -8958.35 -65104.7)
(1110.36 -724.633 19998.6 4295.03 -1348.46 -63318)
(5848.8 -1161.6 25655.4 4428.71 -3321.88 -66475.4)
(24926 519.887 23988.1 1870.46 -20213.6 -87615.4)
(55702 145.553 -46216.3 32310.6 -20378.7 -221866)
(16467.7 -5620.26 -36876.8 20797.5 -46115.9 -170165)
(7701.32 -2856.26 -4429.28 12073 -42641.9 -143858)
(1748.6 -1117.99 10671.3 5701.22 -22586.8 -103122)
(-2492.83 -1086.72 6817.88 2501.51 -4809.21 -71406.4)
(-3354.06 -1495.12 -5528.25 3506.33 1816.55 -63608.7)
(-1500.6 -1421.53 -14922.6 7695.77 -1841.22 -75950.9)
(1038.92 -643.356 -15308.6 11675.9 -9523.99 -91473.5)
(2307.72 266.542 -8363.63 12202.3 -14645.4 -92261.1)
(1666.73 637.044 -652.068 8966.29 -15097.7 -73840.2)
(-23.3158 391.287 2240.87 4017.58 -12323.2 -45451.4)
(-1381.14 -112.761 -595.238 -23.5867 -9130.73 -21664.5)
(-1564.59 -446.062 -6012.03 -1636.06 -7672.47 -11705.2)
(-589.102 -421.946 -9793.92 -821.867 -8550.64 -16451.4)
(890.082 -111.534 -9036.03 1476.37 -11070.1 -29766.8)
(1978.81 298.205 -3574.15 3926.08 -13614.8 -42662.4)
(2020.14 598.341 4024.88 5212.66 -14697.7 -48049.2)
(916.587 618.986 9838.21 4669.21 -14147.7 -44559.6)
(-736.299 238.078 10489.9 2970.41 -13608.9 -37482.9)
(-1790.26 -434.735 5560.94 2229.46 -15733.9 -37319.3)
(-1317.71 -932.626 -971.463 4228.9 -21931.2 -51606)
(470.821 -696.267 -3269.48 8578.03 -30569.7 -76515.5)
(2245.15 350.488 1561.18 12489.2 -36989.1 -97951.7)
(2636.35 1398.48 10778.5 12993.1 -36535.3 -102160)
(1476.68 1566.31 18279.5 9958.43 -29051.9 -88257.5)
(21.1773 852.524 20188 5720.87 -17457.2 -68662.2)
(-189.815 -85.959 18487.2 3047.94 -5880.78 -58090.7)
(1460.33 -729.157 19134.4 2953.99 1506.67 -60783.2)
(6828.43 -1186.04 26550.6 3827.3 -407.604 -69108.2)
(28085.7 716.883 26239 2412.79 -19497.1 -98598.8)
(44837 210.157 -45347.2 17436.1 -4880.18 -167529)
(14842.1 -5705.01 -42314.7 13885 -35152.4 -143869)
(7792.5 -3223.28 -9954.6 10411 -35337.2 -133563)
(2090.22 -1542.5 5874.17 6088.29 -18587.7 -100178)
(-2033.83 -1149.42 3332.54 3283.99 -2648.06 -71576.1)
(-2864.41 -1021.63 -7309.39 3889.8 4490.52 -64489.4)
(-1107.12 -685.41 -15167.3 7210.32 3151.49 -75805.7)
(1238.41 -141.491 -14600.7 10250.1 -2381.1 -89269.9)
(2283.58 277.387 -7510.14 10262.1 -7388.61 -87922.4)
(1498.53 296.421 -323.796 7164.86 -9825.39 -68417.3)
(-190.369 17.37 1888.89 2809.54 -9925.6 -40290)
(-1434.07 -274.515 -1296.36 -607.049 -9048.22 -17587.9)
(-1481.36 -341.695 -6543.57 -1893.61 -8533.65 -8698.85)
(-433.603 -140.623 -9789.12 -1150.67 -8998.51 -13829.2)
(1022.23 200.766 -8462.32 760.137 -10267 -26637.3)
(2021.57 484.648 -2708.56 2678.78 -11474.8 -38363)
(1972.95 538.76 4788.14 3572.63 -11863 -42586.4)
(830.765 313.015 10255.7 3064.14 -11584.1 -38673.4)
(-798.005 -114.217 10590.7 1863.01 -11850.4 -32133.1)
(-1780.67 -531.159 5598.62 1682.71 -14169.7 -32948.8)
(-1225.41 -643.577 -665.83 3788.91 -19057.5 -47744.3)
(595.738 -244.44 -2481.08 7619.63 -25177.1 -72032.8)
(2279.22 532.043 2724.41 10709.2 -29455.8 -91712.8)
(2465.82 1087.16 11717.1 10595.9 -28904.7 -93741.7)
(1143.78 939.579 18245.9 7483.2 -23277.5 -78820.4)
(-260.315 275.003 18992.2 3580.88 -14120.5 -60325.9)
(-187.225 -349.883 16811.6 1411.17 -3970.15 -53009.5)
(1842.78 -702.625 18226.2 2021.87 3576.97 -60492)
(7922.86 -1166.69 27440.3 4141.43 2283.04 -74812.6)
(32161.7 914.039 28702.6 4687.71 -18090 -114762)
(34458.9 507.959 -43888.8 4296.63 737.031 -117016)
(13123.8 -4952.1 -46765.1 8128.93 -28257.8 -120067)
(7745.9 -3130.54 -15083.7 9483.03 -28694.1 -125098)
(2388.93 -1810.81 1147.3 7064.24 -14075.2 -99354)
(-1533.46 -1216.84 -71.9536 4632.05 190.653 -74284.4)
(-2316.85 -658.432 -8823.01 4878.5 7564.04 -67953.2)
(-700.496 -108.855 -15013.5 7409.12 7992.82 -77894.4)
(1402.17 236.874 -13545.3 9575.9 4016.1 -88891.1)
(2217.71 267.404 -6438.77 9050.06 -1210.4 -85225.4)
(1315.12 36.7013 156.079 5946.65 -5566.87 -64596)
(-348.48 -234.201 1698.89 1989.41 -8198.09 -36718.2)
(-1474.58 -342.822 -1807.84 -934.629 -9259.12 -15062.4)
(-1397.88 -211.918 -6895.53 -1911.36 -9482.64 -7183.88)
(-291.969 97.2509 -9654.74 -1169.98 -9568.27 -12628.9)
(1129.65 425.656 -7828.04 443.586 -9817.98 -24840.7)
(2030.55 583.662 -1863.38 1899.74 -10016.6 -35319.2)
(1887.36 446.388 5433.87 2421.58 -9955.63 -38365)
(718.322 59.9882 10452.4 1902.03 -9928.85 -34113.9)
(-852.685 -360.949 10423.5 1105.25 -10698.4 -28292)
(-1730.46 -554.852 5433.2 1429.93 -12867.8 -30261.8)
(-1093.15 -380.861 -428.62 3708.42 -16370.7 -45621.9)
(718.747 93.3982 -1686.44 7193 -20278.3 -69208.4)
(2267.99 586.235 3813.69 9629.57 -22911.5 -87058.7)
(2248.2 707.808 12432.5 8947.38 -22642.8 -87041.5)
(797.087 317.409 17910.5 5638.45 -18936.7 -71310.2)
(-520.576 -264.656 17511.3 1893.98 -12040.9 -54102.2)
(-148.854 -568.097 14930.1 142.169 -3027.81 -50186.4)
(2248.15 -592.563 17205.6 1604.91 5143.44 -62711.5)
(9107.24 -996.442 28227.8 5502.83 5406.13 -83789.3)
(37090.3 1144.76 31279.8 8839.84 -14653.3 -136064)
(25299.2 985.426 -41972.6 -6128.1 -1790.01 -74000.8)
(11396.5 -3515.97 -50063.2 3901.98 -24488.6 -100006)
(7536.74 -2655.64 -19745.3 9309.25 -22232.7 -118601)
(2626.1 -1949.64 -3490.46 8568.66 -8689.98 -100464)
(-1006.78 -1291.88 -3410.72 6513.33 4063.3 -79317.9)
(-1723.29 -391.325 -10128.3 6484.39 11440.7 -73888.9)
(-281.33 328.798 -14545.1 8348.07 13168.3 -82291.5)
(1542.89 499.956 -12203.1 9745.9 10226.6 -90602)
(2128.1 216.626 -5150.71 8670.42 4441 -84524.3)
(1128.66 -185.426 841.864 5397.51 -1883.46 -62682.8)
(-497.049 -406.474 1745.23 1607.41 -6859.9 -34907.8)
(-1511.56 -338.644 -2074.89 -989.484 -9594.89 -14124)
(-1326.47 -50.786 -7053.16 -1685.11 -10369.6 -7130.88)
(-174.516 313.4 -9415.07 -864.862 -10055.4 -12843.9)
(1208.06 585.887 -7181.74 565.565 -9442.28 -24457.6)
(2010.41 608.167 -1086.8 1650.06 -8897.07 -33722.8)
(1776.14 317.62 5944.87 1827.44 -8610.62 -35652)
(592.44 -158.98 10460.4 1238.49 -8855.43 -31131.1)
(-897.352 -521.838 10051.8 731.289 -9905.24 -26101.9)
(-1650.41 -504.94 5112.49 1492.2 -11629.4 -29285.5)
(-937.447 -114.317 -266.386 4018.41 -13621.7 -45245.2)
(829.85 360.563 -942.213 7363.54 -15483.1 -68156.8)
(2213.45 540.435 4762.2 9351.16 -16827 -84261)
(1992.26 252.814 12885 8162.46 -17179.6 -82433.8)
(442.497 -332.899 17263.6 4529.26 -15552.6 -66100.8)
(-760.833 -793.427 15738.1 751.168 -10881.2 -50308.2)
(-78.1778 -735.767 12812.7 -674.837 -2794.75 -49876.5)
(2674.9 -344.796 16026.1 1776.52 6546.68 -67605.9)
(10350.3 -564.9 28867.3 7931.16 9673.95 -95945.1)
(42686.9 1445.91 33877.4 14771 -7814.31 -161754)
(17905.4 1578.46 -39756.3 -13254.9 -10211.8 -41052.1)
(9736.04 -1597.27 -52151.4 1374.58 -22753.8 -84442.2)
(7153.52 -1896.32 -23916.3 9832.78 -15502.5 -114009)
(2790.06 -1985.32 -8041.96 10499 -2124.48 -103189)
(-464.24 -1371.4 -6705.81 8853.8 9303.56 -86338)
(-1092.29 -200.409 -11274.7 8664.64 16526.4 -82029.6)
(149.506 653.256 -13827.2 10005 19180.2 -88856.1)
(1668.5 659.361 -10624.9 10752.1 16834.1 -94393.1)
(2026.44 105.455 -3661.81 9125.53 10144.1 -85895.1)
(948.349 -415.809 1752.57 5525.29 1686.3 -62771.7)
(-632.952 -546.367 2066.03 1670.54 -5615.19 -34913.8)
(-1547.96 -285.652 -2060.97 -771.205 -9880.9 -14762.6)
(-1274.14 147.437 -6997.03 -1220.25 -11042.2 -8477.67)
(-89.3549 531.51 -9075.58 -241.143 -10249.5 -14399.4)
(1252.09 706.742 -6551.88 1125.03 -8845.99 -25448.9)
(1962.47 572.338 -415.741 1934.64 -7754.71 -33604.1)
(1648.13 148.045 6300.4 1797.14 -7445.86 -34540.1)
(464.44 -364.869 10295.1 1077.58 -8025.67 -29828.4)
(-926.567 -618.395 9522.56 740.512 -9216.52 -25608.1)
(-1545.32 -380.586 4684.75 1864.27 -10248.8 -29978.3)
(-769.794 188.793 -160.763 4710.99 -10550.1 -46519.8)
(918.674 604.499 -268.934 8126.82 -10380.3 -68805.3)
(2111.59 425.087 5525.9 9877.01 -10643.7 -83323.7)
(1700.01 -284.739 13029.4 8253.68 -11912.6 -80010.3)
(84.065 -1044.56 16270.7 4181.14 -12616.2 -63348)
(-978.265 -1338.11 13645.8 195.475 -10267.8 -49129.1)
(28.3329 -847.534 10431.5 -981.672 -2967.44 -52251)
(3130.09 90.146 14666.8 2570.98 8167.84 -75219.4)
(11616.1 224.003 29369.3 11324.8 15782.8 -110876)
(48650.3 1850.23 36414.2 22130.1 3656.22 -190372)
(12609.5 2219.45 -37402.4 -16903.4 -22047.5 -19515.6)
(8204.09 583.588 -53073.1 525.218 -21935.2 -73623.4)
(6598.58 -957.919 -27616.2 10927.9 -8119.98 -111071)
(2876.52 -1941.51 -12525.4 12709.2 5851.78 -107089)
(88.0597 -1447.33 -9981.67 11527.1 16191.8 -94872.1)
(-429.336 -63.0945 -12300.3 11309 23190.5 -91939.1)
(590.741 891.206 -12906.1 12272.3 26497.5 -97224.8)
(1782.13 727.961 -8852.26 12486.5 24388 -99983.8)
(1918.03 -82.7538 -2002.27 10321.7 16446.4 -89143.8)
(780.243 -696.579 2872.64 6266.38 5582.42 -64752.2)
(-750.677 -698.208 2663.58 2146.14 -4179.59 -36678.1)
(-1580.9 -206.905 -1747.65 -295.857 -9948.32 -16921.5)
(-1242.48 387.521 -6702.87 -534.658 -11353.6 -11125.2)
(-42.3487 773.828 -8623.01 670.434 -9948.13 -17146.7)
(1255.2 812.352 -5947.47 2078.45 -7746.73 -27651.1)
(1884.55 489.802 122.87 2703.72 -6242.66 -34832.2)
(1508.24 -66.6073 6475.1 2282.69 -6096.14 -34955.9)
(343.863 -577.925 9955.41 1379.27 -7118.34 -30172.1)
(-932.381 -671.637 8866.7 1101.57 -8391.46 -26764.4)
(-1414 -181.94 4199.77 2512.89 -8532.16 -32227.6)
(-596.573 558.852 -68.0616 5734.64 -6911.14 -49243.6)
(974.538 870.446 348.808 9404.83 -4580.88 -70888.5)
(1952.42 270.476 6083.06 11112.8 -3830.12 -83983.5)
(1366.77 -908.809 12814 9136.56 -6264.82 -79585.5)
(-275.862 -1845.64 14872.8 4547.88 -9630.85 -62997.6)
(-1165.8 -1920.12 11190.5 228.205 -9819.48 -50622.5)
(180.929 -896.506 7764.27 -745.423 -3213.87 -57393)
(3628.21 749.68 13135.1 3978.92 10406.2 -85465.8)
(12866.2 1433.7 29797.3 15459.3 24337.5 -127879)
(54582.7 2377.65 38826.2 30326.6 20668.4 -219836)
(9522.26 2842.49 -35063.4 -17266.8 -34857.7 -9528.46)
(6845.64 2808.63 -52960 1160.44 -20998.1 -67321.3)
(5887.23 56.0651 -30899.9 12407.1 199.297 -109376)
(2888.27 -1838.74 -16968 15010.5 15367 -111621)
(647.819 -1508.99 -13261.4 14349.1 24918.7 -104322)
(262.544 43.096 -13231.8 14232.4 31719.2 -103017)
(1040.64 1067.52 -11811.5 14952.6 35501.8 -106822)
(1882.68 719.307 -6918.36 14742 33343.2 -106842)
(1802.53 -358.232 -214.877 12074.7 23808.7 -93831.7)
(627.426 -1059.85 4155.86 7493.05 10182.8 -68331.7)
(-842.835 -897.83 3508.27 2968.49 -2303.35 -40044)
(-1602.39 -122.296 -1132.6 407.406 -9644.98 -20503.5)
(-1228.36 671.96 -6142.18 340.945 -11171.7 -14938.8)
(-37.306 1057.72 -8027.37 1811.68 -8973.98 -20864.1)
(1209.93 922.702 -5360.56 3338.37 -5900.02 -30781.7)
(1771.43 372.854 510.465 3854.96 -4060.72 -37127.5)
(1357.83 -328.762 6438.93 3186.93 -4243.91 -36676.6)
(238.58 -814.905 9425.14 2067.41 -5852.95 -32010.3)
(-904.755 -700.717 8101.19 1758.92 -7220.54 -29446.7)
(-1250.02 87.847 3708.68 3379.97 -6316.67 -35857.2)