/*--------------------------------*- C++ -*----------------------------------*\
| =========                 |                                                 |
| \\      /  F ield         | OpenFOAM: The Open Source CFD Toolbox           |
|  \\    /   O peration     | Version:  2106                                  |
|   \\  /    A nd           | Website:  www.openfoam.com                      |
|    \\/     M anipulation  |                                                 |
\*---------------------------------------------------------------------------*/
FoamFile
{
    version     2.0;
    format      ascii;
    arch        "LSB;label=32;scalar=64";
    class       volSymmTensorField;
    location    "1464";
    object      sigma;
}
// * * * * * * * * * * * * * * * * * * * * * * * * * * * * * * * * * * * * * //

dimensions      [1 -1 -2 0 0 0 0];

internalField   nonuniform List<symmTensor> 
9000
(
(-1.21571e+14 1.60762e+12 5.45651e+11 -7.29064e+13 -1.13606e+14 -6.7392e+14)
(-2.08658e+14 -2.58997e+10 5.50031e+13 -7.3899e+13 -9.08691e+13 -6.38723e+14)
(-1.84324e+14 7.40613e+11 6.6129e+13 -5.80716e+13 -6.50017e+13 -5.21582e+14)
(-1.60242e+14 6.93081e+11 5.39674e+13 -4.71642e+13 -4.54265e+13 -4.38283e+14)
(-1.40988e+14 3.49638e+11 3.85015e+13 -4.00888e+13 -3.42805e+13 -3.83418e+14)
(-1.22219e+14 -1.12242e+09 2.54465e+13 -3.48925e+13 -3.07795e+13 -3.30911e+14)
(-1.03987e+14 -1.97459e+11 1.23149e+13 -3.1053e+13 -3.27684e+13 -2.77588e+14)
(-9.16419e+13 -1.84782e+11 -6.7012e+11 -2.93606e+13 -3.65641e+13 -2.44437e+14)
(-8.88602e+13 -1.23996e+10 -7.2368e+12 -2.98901e+13 -3.83582e+13 -2.44755e+14)
(-9.0764e+13 2.01741e+11 -4.34241e+12 -3.02936e+13 -3.5891e+13 -2.59417e+14)
(-9.21521e+13 3.10793e+11 3.5676e+12 -2.93189e+13 -2.99969e+13 -2.67159e+14)
(-8.90892e+13 2.48187e+11 9.57279e+12 -2.67722e+13 -2.36323e+13 -2.55427e+14)
(-8.16797e+13 6.97581e+10 9.12782e+12 -2.35887e+13 -1.95333e+13 -2.28362e+14)
(-7.35687e+13 -1.1076e+11 3.36572e+12 -2.12687e+13 -1.88405e+13 -2.01657e+14)
(-6.79095e+13 -1.89158e+11 -2.7662e+12 -2.04966e+13 -2.10518e+13 -1.85821e+14)
(-6.62442e+13 -1.33735e+11 -6.08888e+12 -2.10728e+13 -2.44709e+13 -1.82102e+14)
(-6.92688e+13 -2.18792e+10 -8.11546e+12 -2.24737e+13 -2.71497e+13 -1.897e+14)
(-7.78809e+13 5.67368e+10 -1.20382e+13 -2.46876e+13 -2.8382e+13 -2.13628e+14)
(-9.32619e+13 4.59315e+10 -1.5967e+13 -2.86431e+13 -2.89532e+13 -2.61195e+14)
(-1.09901e+14 -7.41223e+10 -1.49907e+13 -3.34054e+13 -3.086e+13 -3.14403e+14)
(-1.20763e+14 -2.30533e+11 -9.48717e+12 -3.72271e+13 -3.55742e+13 -3.46385e+14)
(-1.24105e+14 -3.06285e+11 -5.35227e+12 -3.94431e+13 -4.25863e+13 -3.50895e+14)
(-1.25299e+14 -2.31164e+11 -5.71976e+12 -4.12111e+13 -4.94179e+13 -3.51039e+14)
(-1.3061e+14 -2.26418e+10 -4.32372e+12 -4.37957e+13 -5.28266e+13 -3.714e+14)
(-1.36039e+14 2.06353e+11 6.03755e+12 -4.51823e+13 -5.06964e+13 -3.96072e+14)
(-1.33596e+14 3.32701e+11 2.22414e+13 -4.29689e+13 -4.38425e+13 -3.91993e+14)
(-1.19687e+14 3.32133e+11 3.40842e+13 -3.70051e+13 -3.54091e+13 -3.45901e+14)
(-9.77084e+13 2.88304e+11 3.54681e+13 -2.95368e+13 -2.84542e+13 -2.75445e+14)
(-7.14536e+13 2.72309e+11 3.07562e+13 -2.26876e+13 -2.38945e+13 -2.07735e+14)
(-3.14537e+13 -1.72263e+11 1.87866e+13 -1.7064e+13 -1.9836e+13 -1.67561e+14)
(-6.98316e+13 2.84728e+12 -7.01267e+12 -5.97003e+13 -2.3968e+14 -4.01306e+14)
(-1.41981e+14 7.50836e+11 3.62325e+13 -7.48363e+13 -1.78503e+14 -4.24719e+14)
(-1.39716e+14 1.29843e+12 5.01372e+13 -6.85146e+13 -1.19758e+14 -3.75358e+14)
(-1.30375e+14 1.16961e+12 4.38023e+13 -6.25127e+13 -7.61622e+13 -3.348e+14)
(-1.19114e+14 6.81762e+10 3.3337e+13 -5.65988e+13 -5.22163e+13 -3.02749e+14)
(-1.01644e+14 -1.28647e+12 2.39066e+13 -4.75545e+13 -4.81692e+13 -2.56763e+14)
(-7.95833e+13 -1.83943e+12 1.2975e+13 -3.60322e+13 -5.87367e+13 -1.97749e+14)
(-6.23706e+13 -1.17285e+12 4.76975e+11 -2.75965e+13 -7.23049e+13 -1.54588e+14)
(-5.79007e+13 1.03667e+11 -7.37472e+12 -2.66276e+13 -7.74527e+13 -1.49899e+14)
(-6.28747e+13 1.08575e+12 -6.5304e+12 -3.03875e+13 -6.97154e+13 -1.70615e+14)
(-7.01235e+13 1.22827e+12 6.17448e+10 -3.45436e+13 -5.33748e+13 -1.92416e+14)
(-7.25015e+13 5.91524e+11 6.18793e+12 -3.53632e+13 -3.7549e+13 -1.95566e+14)
(-6.79961e+13 -2.71675e+11 7.09758e+12 -3.23411e+13 -2.91575e+13 -1.78302e+14)
(-5.9902e+13 -8.56927e+11 3.16654e+12 -2.79085e+13 -2.98184e+13 -1.53897e+14)
(-5.21021e+13 -9.49354e+11 -1.50383e+12 -2.41316e+13 -3.71894e+13 -1.33823e+14)
(-4.72164e+13 -5.40842e+11 -4.26383e+12 -2.18499e+13 -4.6674e+13 -1.22174e+14)
(-4.75498e+13 1.91748e+11 -6.48322e+12 -2.18257e+13 -5.31191e+13 -1.22514e+14)
(-5.54796e+13 9.7091e+11 -1.054e+13 -2.55082e+13 -5.39941e+13 -1.43138e+14)
(-7.15927e+13 1.25293e+12 -1.39518e+13 -3.39784e+13 -5.08813e+13 -1.88851e+14)
(-8.79e+13 5.90859e+11 -1.19898e+13 -4.2877e+13 -5.08244e+13 -2.36894e+14)
(-9.50249e+13 -5.83648e+11 -5.60681e+12 -4.64958e+13 -6.02056e+13 -2.57005e+14)
(-9.14968e+13 -1.24262e+12 -1.2715e+12 -4.3825e+13 -7.8249e+13 -2.44207e+14)
(-8.59761e+13 -7.5855e+11 -2.56363e+12 -4.03182e+13 -9.63188e+13 -2.27574e+14)
(-8.86834e+13 3.89899e+11 -3.51657e+12 -4.23887e+13 -1.03656e+14 -2.39217e+14)
(-9.72806e+13 1.11316e+12 3.61777e+12 -4.80626e+13 -9.5868e+13 -2.69248e+14)
(-1.01836e+14 8.81198e+11 1.72522e+13 -5.09343e+13 -7.80452e+13 -2.83011e+14)
(-9.50389e+13 9.30736e+10 2.84087e+13 -4.68708e+13 -5.98581e+13 -2.58948e+14)
(-7.77057e+13 -4.95417e+11 3.08156e+13 -3.73039e+13 -4.80575e+13 -2.06144e+14)
(-5.3659e+13 -5.73685e+11 2.74785e+13 -2.60348e+13 -4.27455e+13 -1.48694e+14)
(-2.23747e+13 -7.59588e+11 1.70904e+13 -1.87971e+13 -3.84174e+13 -1.16303e+14)
(-5.9582e+13 3.10778e+12 -1.21497e+13 -7.97329e+13 -2.78347e+14 -3.1963e+14)
(-1.2748e+14 3.30929e+12 2.37476e+13 -9.92487e+13 -1.98181e+14 -3.5254e+14)
(-1.28598e+14 3.13687e+12 4.00609e+13 -9.10578e+13 -1.27052e+14 -3.21504e+14)
(-1.20635e+14 2.30945e+12 3.76995e+13 -8.14798e+13 -7.54231e+13 -2.89321e+14)
(-1.10115e+14 1.30936e+11 2.98565e+13 -7.24806e+13 -4.75714e+13 -2.61358e+14)
(-9.35129e+13 -2.42479e+12 2.18317e+13 -6.07429e+13 -4.50401e+13 -2.19784e+14)
(-7.23964e+13 -3.48407e+12 1.19453e+13 -4.68465e+13 -6.14104e+13 -1.65611e+14)
(-5.57682e+13 -2.2301e+12 3.02979e+11 -3.69574e+13 -8.08512e+13 -1.25113e+14)
(-5.13912e+13 2.26297e+11 -7.3965e+12 -3.58799e+13 -8.78261e+13 -1.19976e+14)
(-5.62079e+13 2.1177e+12 -7.14644e+12 -4.00678e+13 -7.71793e+13 -1.39258e+14)
(-6.32158e+13 2.38203e+12 -1.34395e+12 -4.43399e+13 -5.56761e+13 -1.60338e+14)
(-6.56062e+13 1.18523e+12 4.34984e+12 -4.45695e+13 -3.57811e+13 -1.64761e+14)
(-6.15279e+13 -4.19123e+11 5.50776e+12 -4.0505e+13 -2.61941e+13 -1.50595e+14)
(-5.41094e+13 -1.51295e+12 2.38138e+12 -3.52127e+13 -2.82913e+13 -1.2953e+14)
(-4.69362e+13 -1.74322e+12 -1.37055e+12 -3.10523e+13 -3.85212e+13 -1.11699e+14)
(-4.22687e+13 -1.08699e+12 -3.45928e+12 -2.87145e+13 -5.09878e+13 -1.00493e+14)
(-4.22612e+13 2.33443e+11 -5.24654e+12 -2.88856e+13 -5.90658e+13 -9.9472e+13)
(-4.94878e+13 1.69339e+12 -8.76535e+12 -3.33784e+13 -5.89459e+13 -1.17155e+14)
(-6.43975e+13 2.20337e+12 -1.15885e+13 -4.35423e+13 -5.25911e+13 -1.57227e+14)
(-7.93895e+13 9.39376e+11 -9.4849e+12 -5.43729e+13 -4.99944e+13 -1.98759e+14)
(-8.56023e+13 -1.27539e+12 -3.46389e+12 -5.9195e+13 -6.06233e+13 -2.14504e+14)
(-8.17011e+13 -2.49497e+12 4.56031e+11 -5.67149e+13 -8.3714e+13 -2.00309e+14)
(-7.60583e+13 -1.53305e+12 -1.08729e+12 -5.31837e+13 -1.07023e+14 -1.83066e+14)
(-7.85326e+13 7.26487e+11 -2.68397e+12 -5.59781e+13 -1.15663e+14 -1.92503e+14)
(-8.70047e+13 2.22562e+12 2.91609e+12 -6.2569e+13 -1.04459e+14 -2.206e+14)
(-9.2069e+13 1.88853e+12 1.46831e+13 -6.54456e+13 -8.14634e+13 -2.36295e+14)
(-8.65502e+13 3.988e+11 2.47702e+13 -5.99055e+13 -5.99161e+13 -2.18943e+14)
(-7.08963e+13 -8.26827e+11 2.74265e+13 -4.78055e+13 -4.79319e+13 -1.74968e+14)
(-4.84569e+13 -1.10943e+12 2.50081e+13 -3.35962e+13 -4.45333e+13 -1.24707e+14)
(-1.97236e+13 -9.02784e+11 1.57526e+13 -2.38281e+13 -4.25918e+13 -9.59582e+13)
(-5.92112e+13 3.19009e+12 -1.62879e+13 -8.3998e+13 -2.78587e+14 -3.11216e+14)
(-1.21059e+14 5.62813e+12 1.50818e+13 -1.04637e+14 -1.91376e+14 -3.26939e+14)
(-1.21521e+14 4.66875e+12 3.30824e+13 -9.77e+13 -1.1766e+14 -2.95415e+14)
(-1.12067e+14 3.16205e+12 3.35751e+13 -8.67611e+13 -6.50262e+13 -2.5995e+14)
(-1.00886e+14 1.50006e+11 2.70435e+13 -7.61982e+13 -3.69876e+13 -2.30035e+14)
(-8.56246e+13 -3.30551e+12 1.91618e+13 -6.35021e+13 -3.61175e+13 -1.92981e+14)
(-6.73935e+13 -4.75361e+12 9.68963e+12 -4.92085e+13 -5.58226e+13 -1.48607e+14)
(-5.3303e+13 -3.05796e+12 -7.7108e+11 -3.92078e+13 -7.83935e+13 -1.16395e+14)
(-4.95526e+13 3.14342e+11 -7.34232e+12 -3.80692e+13 -8.62785e+13 -1.12723e+14)
(-5.30911e+13 2.91349e+12 -6.78102e+12 -4.20676e+13 -7.42946e+13 -1.27295e+14)
(-5.79747e+13 3.27082e+12 -1.50841e+12 -4.59384e+13 -5.07162e+13 -1.41582e+14)
(-5.89045e+13 1.65364e+12 3.35514e+12 -4.57252e+13 -2.95462e+13 -1.42019e+14)
(-5.47923e+13 -5.03355e+11 4.08512e+12 -4.13988e+13 -2.00285e+13 -1.28638e+14)
(-4.84997e+13 -1.97914e+12 1.18824e+12 -3.61496e+13 -2.31797e+13 -1.11649e+14)
(-4.28982e+13 -2.32695e+12 -1.92669e+12 -3.22409e+13 -3.47772e+13 -9.87584e+13)
(-3.94896e+13 -1.51097e+12 -3.25754e+12 -3.01074e+13 -4.84486e+13 -9.13696e+13)
(-3.9786e+13 2.40705e+11 -4.18943e+12 -3.03117e+13 -5.70257e+13 -9.13601e+13)
(-4.60464e+13 2.20454e+12 -6.68713e+12 -3.48253e+13 -5.59684e+13 -1.05874e+14)
(-5.87098e+13 2.86049e+12 -8.83681e+12 -4.50407e+13 -4.74621e+13 -1.3813e+14)
(-7.158e+13 1.12587e+12 -7.13453e+12 -5.60259e+13 -4.29869e+13 -1.71908e+14)
(-7.73869e+13 -1.86823e+12 -2.30858e+12 -6.11294e+13 -5.35961e+13 -1.85859e+14)
(-7.49394e+13 -3.4863e+12 7.73628e+11 -5.89768e+13 -7.8554e+13 -1.7653e+14)
(-7.10629e+13 -2.13201e+12 -5.87365e+11 -5.57103e+13 -1.03764e+14 -1.65091e+14)
(-7.38061e+13 1.003e+12 -1.74908e+12 -5.86409e+13 -1.12419e+14 -1.74755e+14)
(-8.09735e+13 3.13322e+12 3.32198e+12 -6.51941e+13 -9.93265e+13 -1.97759e+14)
(-8.47097e+13 2.75172e+12 1.35426e+13 -6.794e+13 -7.4284e+13 -2.0907e+14)
(-7.92468e+13 7.37976e+11 2.22143e+13 -6.22129e+13 -5.21682e+13 -1.92904e+14)
(-6.51507e+13 -9.98717e+11 2.45999e+13 -4.98104e+13 -4.13547e+13 -1.55216e+14)
(-4.4827e+13 -1.48374e+12 2.28024e+13 -3.49995e+13 -4.01296e+13 -1.11967e+14)
(-1.84492e+13 -9.09593e+11 1.46386e+13 -2.47784e+13 -4.0868e+13 -8.76121e+13)
(-6.28729e+13 3.18694e+12 -1.98083e+13 -8.28489e+13 -2.62393e+14 -3.32968e+14)
(-1.1803e+14 6.87731e+12 8.90625e+12 -1.03061e+14 -1.76464e+14 -3.2025e+14)
(-1.15979e+14 5.44111e+12 2.7915e+13 -9.77271e+13 -1.05206e+14 -2.79938e+14)
(-1.03889e+14 3.52706e+12 3.04725e+13 -8.59383e+13 -5.45512e+13 -2.36923e+14)
(-9.15545e+13 8.7695e+10 2.44949e+13 -7.42879e+13 -2.76626e+13 -2.03052e+14)
(-7.78945e+13 -3.8215e+12 1.60655e+13 -6.15672e+13 -2.77888e+13 -1.70686e+14)
(-6.34142e+13 -5.46793e+12 6.66762e+12 -4.82136e+13 -4.86346e+13 -1.38093e+14)
(-5.27482e+13 -3.5288e+12 -2.40291e+12 -3.9136e+13 -7.21966e+13 -1.16513e+14)
(-4.98571e+13 3.51852e+11 -7.24807e+12 -3.80655e+13 -8.03584e+13 -1.151e+14)
(-5.15963e+13 3.3338e+12 -5.83799e+12 -4.13429e+13 -6.81974e+13 -1.23559e+14)
(-5.35101e+13 3.73152e+12 -9.55467e+11 -4.41701e+13 -4.45669e+13 -1.28548e+14)
(-5.23246e+13 1.89223e+12 2.84215e+12 -4.32654e+13 -2.3708e+13 -1.22855e+14)
(-4.79602e+13 -5.44769e+11 2.76147e+12 -3.89348e+13 -1.4722e+13 -1.09266e+14)
(-4.29733e+13 -2.20963e+12 -2.26498e+11 -3.42306e+13 -1.83823e+13 -9.65721e+13)
(-3.93389e+13 -2.61601e+12 -2.86523e+12 -3.10561e+13 -3.02658e+13 -8.96273e+13)
(-3.76416e+13 -1.72353e+12 -3.39926e+12 -2.94632e+13 -4.39918e+13 -8.73985e+13)
(-3.85423e+13 2.49725e+11 -3.23491e+12 -2.97617e+13 -5.24012e+13 -8.94246e+13)
(-4.37205e+13 2.4644e+12 -4.43433e+12 -3.3874e+13 -5.07523e+13 -1.0069e+14)
(-5.37111e+13 3.16557e+12 -5.87885e+12 -4.31749e+13 -4.1384e+13 -1.2436e+14)
(-6.41661e+13 1.16372e+12 -4.90757e+12 -5.33442e+13 -3.61372e+13 -1.50089e+14)
(-6.98423e+13 -2.23163e+12 -1.7598e+12 -5.84286e+13 -4.63913e+13 -1.63469e+14)
(-6.96694e+13 -4.02592e+12 2.54787e+11 -5.70678e+13 -7.13644e+13 -1.61616e+14)
(-6.83713e+13 -2.42167e+12 -6.45417e+11 -5.46162e+13 -9.64331e+13 -1.58547e+14)
(-7.15742e+13 1.20624e+12 -7.1849e+11 -5.7524e+13 -1.04444e+14 -1.69384e+14)
(-7.68981e+13 3.68429e+12 4.4273e+12 -6.33474e+13 -9.06033e+13 -1.85979e+14)
(-7.84787e+13 3.28173e+12 1.32961e+13 -6.54919e+13 -6.53596e+13 -1.90267e+14)
(-7.25198e+13 9.84327e+11 2.03491e+13 -5.99004e+13 -4.38419e+13 -1.72934e+14)
(-5.99145e+13 -1.0418e+12 2.21515e+13 -4.82128e+13 -3.41625e+13 -1.40372e+14)
(-4.19209e+13 -1.65422e+12 2.08033e+13 -3.40475e+13 -3.43878e+13 -1.04064e+14)
(-1.78257e+13 -8.46294e+11 1.3749e+13 -2.43564e+13 -3.71252e+13 -8.46951e+13)
(-6.76442e+13 3.02879e+12 -2.28046e+13 -8.10641e+13 -2.35931e+14 -3.62562e+14)
(-1.16144e+14 6.90177e+12 4.2288e+12 -9.94635e+13 -1.579e+14 -3.19553e+14)
(-1.11009e+14 5.40489e+12 2.37774e+13 -9.52156e+13 -9.27242e+13 -2.68175e+14)
(-9.60979e+13 3.43183e+12 2.78456e+13 -8.25435e+13 -4.5811e+13 -2.17026e+14)
(-8.25798e+13 -3.23585e+10 2.20364e+13 -6.99407e+13 -2.0691e+13 -1.79088e+14)
(-7.05859e+13 -3.96961e+12 1.27862e+13 -5.7712e+13 -2.10889e+13 -1.51288e+14)
(-6.00139e+13 -5.62801e+12 3.32652e+12 -4.61366e+13 -4.12958e+13 -1.30441e+14)
(-5.29594e+13 -3.63618e+12 -4.27906e+12 -3.86788e+13 -6.41426e+13 -1.19697e+14)
(-5.0952e+13 3.44621e+11 -7.14235e+12 -3.77896e+13 -7.20875e+13 -1.20615e+14)
(-5.07481e+13 3.38136e+12 -4.64668e+12 -3.99538e+13 -6.06506e+13 -1.22745e+14)
(-4.94949e+13 3.76718e+12 -8.27251e+10 -4.12089e+13 -3.84823e+13 -1.18084e+14)
(-4.60371e+13 1.89874e+12 2.57059e+12 -3.93155e+13 -1.90594e+13 -1.05889e+14)
(-4.13385e+13 -5.54053e+11 1.5327e+12 -3.50303e+13 -1.08712e+13 -9.17509e+13)
(-3.76538e+13 -2.21941e+12 -1.6856e+12 -3.11358e+13 -1.45678e+13 -8.31449e+13)
(-3.60354e+13 -2.62036e+12 -3.93514e+12 -2.901e+13 -2.59051e+13 -8.21025e+13)
(-3.61323e+13 -1.72135e+12 -3.68229e+12 -2.82278e+13 -3.88275e+13 -8.51551e+13)
(-3.77173e+13 2.70868e+11 -2.34907e+12 -2.87303e+13 -4.65851e+13 -8.9427e+13)
(-4.18137e+13 2.48704e+12 -2.17813e+12 -3.22225e+13 -4.46884e+13 -9.75826e+13)
(-4.91284e+13 3.13997e+12 -2.95573e+12 -4.00725e+13 -3.55596e+13 -1.12997e+14)
(-5.72387e+13 1.07418e+12 -2.86566e+12 -4.89296e+13 -3.05122e+13 -1.31248e+14)
(-6.29527e+13 -2.35348e+12 -1.56216e+12 -5.39531e+13 -4.02696e+13 -1.4469e+14)
(-6.52755e+13 -4.11123e+12 -6.62195e+11 -5.38289e+13 -6.3942e+13 -1.50831e+14)
(-6.67139e+13 -2.40067e+12 -9.47458e+11 -5.26755e+13 -8.74097e+13 -1.56441e+14)
(-7.03673e+13 1.33857e+12 3.73995e+11 -5.55539e+13 -9.43446e+13 -1.6853e+14)
(-7.36943e+13 3.87161e+12 5.89657e+12 -6.01931e+13 -8.06335e+13 -1.7853e+14)
(-7.29008e+13 3.45611e+12 1.35607e+13 -6.12847e+13 -5.64984e+13 -1.75283e+14)
(-6.62777e+13 1.10496e+12 1.89595e+13 -5.58138e+13 -3.62792e+13 -1.56091e+14)
(-5.50847e+13 -9.83489e+11 2.00594e+13 -4.53007e+13 -2.75059e+13 -1.2799e+14)
(-3.94136e+13 -1.63189e+12 1.9107e+13 -3.24653e+13 -2.84394e+13 -9.8256e+13)
(-1.75297e+13 -7.25817e+11 1.31246e+13 -2.39501e+13 -3.2493e+13 -8.3981e+13)
(-7.15478e+13 2.68203e+12 -2.53296e+13 -7.98011e+13 -2.02128e+14 -3.86725e+14)
(-1.13905e+14 5.87392e+12 2.48073e+11 -9.54989e+13 -1.36995e+14 -3.17821e+14)
(-1.06035e+14 4.69517e+12 2.01071e+13 -9.17747e+13 -8.06565e+13 -2.56959e+14)
(-8.8738e+13 2.98613e+12 2.53369e+13 -7.81586e+13 -3.86603e+13 -1.99119e+14)
(-7.42761e+13 -1.79557e+11 1.9583e+13 -6.47113e+13 -1.56296e+13 -1.57938e+14)
(-6.3878e+13 -3.81329e+12 9.5487e+12 -5.3264e+13 -1.57342e+13 -1.34305e+14)
(-5.69227e+13 -5.33507e+12 4.26408e+10 -4.3905e+13 -3.40305e+13 -1.23904e+14)
(-5.32087e+13 -3.44054e+12 -6.13375e+12 -3.84383e+13 -5.49255e+13 -1.22829e+14)
(-5.19654e+13 3.08419e+11 -7.03986e+12 -3.77869e+13 -6.22977e+13 -1.25682e+14)
(-4.99101e+13 3.13195e+12 -3.46255e+12 -3.85997e+13 -5.22277e+13 -1.21988e+14)
(-4.57066e+13 3.46297e+12 8.07102e+11 -3.79587e+13 -3.25908e+13 -1.08637e+14)
(-4.01424e+13 1.71762e+12 2.36509e+12 -3.48777e+13 -1.54006e+13 -9.06226e+13)
(-3.51239e+13 -5.42015e+11 4.05641e+11 -3.06259e+13 -8.20805e+12 -7.59667e+13)
(-3.26273e+13 -2.05689e+12 -3.04659e+12 -2.76549e+13 -1.16113e+13 -7.09643e+13)
(-3.28532e+13 -2.39839e+12 -4.94044e+12 -2.67337e+13 -2.18102e+13 -7.51376e+13)
(-3.4588e+13 -1.54501e+12 -3.94906e+12 -2.69131e+13 -3.33192e+13 -8.28464e+13)
(-3.67902e+13 3.0403e+11 -1.51094e+12 -2.76985e+13 -4.00874e+13 -8.90703e+13)
(-3.98809e+13 2.32241e+12 -6.82897e+10 -3.04723e+13 -3.82025e+13 -9.44218e+13)
(-4.47833e+13 2.85749e+12 -2.75842e+11 -3.66299e+13 -3.00846e+13 -1.0264e+14)
(-5.08414e+13 8.93478e+11 -1.0726e+12 -4.39784e+13 -2.58932e+13 -1.14571e+14)
(-5.66893e+13 -2.27409e+12 -1.52384e+12 -4.89879e+13 -3.50331e+13 -1.28392e+14)
(-6.13513e+13 -3.83028e+12 -1.63731e+12 -5.03856e+13 -5.64822e+13 -1.41807e+14)
(-6.52736e+13 -2.13251e+12 -1.25264e+12 -5.08166e+13 -7.7353e+13 -1.55061e+14)
(-6.92359e+13 1.41006e+12 1.49278e+12 -5.36819e+13 -8.29481e+13 -1.67967e+14)
(-7.06454e+13 3.75844e+12 7.45797e+12 -5.68882e+13 -6.99935e+13 -1.7186e+14)
(-6.76429e+13 3.32918e+12 1.40344e+13 -5.66423e+13 -4.78706e+13 -1.61823e+14)
(-6.04412e+13 1.10213e+12 1.78824e+13 -5.12259e+13 -2.94286e+13 -1.41037e+14)
(-5.0602e+13 -8.65917e+11 1.83214e+13 -4.2102e+13 -2.14223e+13 -1.17011e+14)
(-3.71235e+13 -1.47379e+12 1.78138e+13 -3.09831e+13 -2.25718e+13 -9.32595e+13)
(-1.73736e+13 -5.59705e+11 1.28092e+13 -2.41093e+13 -2.75526e+13 -8.3837e+13)
(-7.32723e+13 2.17903e+12 -2.74268e+13 -7.87513e+13 -1.6412e+14 -3.97722e+14)
(-1.10316e+14 4.12126e+12 -3.60567e+12 -9.14762e+13 -1.15014e+14 -3.11193e+14)
(-1.00695e+14 3.53171e+12 1.65259e+13 -8.79585e+13 -6.92435e+13 -2.44819e+14)
(-8.18268e+13 2.32505e+12 2.27322e+13 -7.34916e+13 -3.27946e+13 -1.8279e+14)
(-6.68093e+13 -3.27296e+11 1.71001e+13 -5.93867e+13 -1.19533e+13 -1.396e+14)
(-5.78592e+13 -3.44296e+12 6.51883e+12 -4.88778e+13 -1.13895e+13 -1.19568e+14)
(-5.39783e+13 -4.72913e+12 -2.91539e+12 -4.18599e+13 -2.70118e+13 -1.17651e+14)
(-5.30631e+13 -3.03088e+12 -7.77085e+12 -3.8471e+13 -4.52058e+13 -1.2432e+14)
(-5.23761e+13 2.60868e+11 -6.93913e+12 -3.80469e+13 -5.17999e+13 -1.28443e+14)
(-4.86911e+13 2.69008e+12 -2.45035e+12 -3.74097e+13 -4.34786e+13 -1.19805e+14)
(-4.19881e+13 2.93676e+12 1.51643e+12 -3.4764e+13 -2.69926e+13 -9.94062e+13)
(-3.46731e+13 1.41296e+12 2.11123e+12 -3.04338e+13 -1.25017e+13 -7.68157e+13)
(-2.94155e+13 -5.17473e+11 -6.1468e+11 -2.62023e+13 -6.43091e+12 -6.18856e+13)
(-2.79365e+13 -1.78197e+12 -4.21493e+12 -2.41677e+13 -9.35335e+12 -5.98705e+13)
(-2.97102e+13 -2.0273e+12 -5.75067e+12 -2.44717e+13 -1.80625e+13 -6.82359e+13)
(-3.2787e+13 -1.25379e+12 -4.09422e+12 -2.56401e+13 -2.78005e+13 -7.95747e+13)
(-3.54524e+13 3.43595e+11 -7.08064e+11 -2.673e+13 -3.33962e+13 -8.71843e+13)
(-3.76548e+13 2.03385e+12 1.7919e+12 -2.87642e+13 -3.16912e+13 -9.01289e+13)
(-4.05492e+13 2.41118e+12 2.02088e+12 -3.31986e+13 -2.50173e+13 -9.25846e+13)
(-4.49564e+13 6.61939e+11 4.31639e+11 -3.90445e+13 -2.20189e+13 -9.9632e+13)
(-5.09803e+13 -2.05483e+12 -1.51274e+12 -4.41036e+13 -3.04381e+13 -1.13961e+14)
(-5.76078e+13 -3.30627e+12 -2.44001e+12 -4.71194e+13 -4.91263e+13 -1.33276e+14)
(-6.35308e+13 -1.70712e+12 -1.40075e+12 -4.92029e+13 -6.68585e+13 -1.52444e+14)
(-6.75884e+13 1.43099e+12 2.60724e+12 -5.2043e+13 -7.10221e+13 -1.65477e+14)
(-6.72886e+13 3.43419e+12 8.91679e+12 -5.37362e+13 -5.92158e+13 -1.64099e+14)
(-6.24606e+13 2.98707e+12 1.44961e+13 -5.20681e+13 -3.96167e+13 -1.48668e+14)
(-5.49259e+13 9.97259e+11 1.69862e+13 -4.66997e+13 -2.32131e+13 -1.27081e+14)
(-4.64295e+13 -7.32175e+11 1.69179e+13 -3.90772e+13 -1.59106e+13 -1.06977e+14)
(-3.49753e+13 -1.25395e+12 1.69774e+13 -2.989e+13 -1.7045e+13 -8.85833e+13)
(-1.72892e+13 -3.65465e+11 1.28357e+13 -2.49989e+13 -2.28812e+13 -8.3715e+13)
(-7.21421e+13 1.59678e+12 -2.91159e+13 -7.72315e+13 -1.25288e+14 -3.92063e+14)
(-1.04896e+14 2.02187e+12 -7.64582e+12 -8.7267e+13 -9.33884e+13 -2.98057e+14)
(-9.4858e+13 2.15426e+12 1.28306e+13 -8.39312e+13 -5.8782e+13 -2.31321e+14)
(-7.54073e+13 1.57622e+12 1.99361e+13 -6.88842e+13 -2.79937e+13 -1.67988e+14)
(-6.02769e+13 -4.57133e+11 1.45864e+13 -5.43978e+13 -9.27329e+12 -1.24109e+14)
(-5.25933e+13 -2.95015e+12 3.79587e+12 -4.49013e+13 -7.83957e+12 -1.07049e+14)
(-5.11409e+13 -3.94976e+12 -5.3916e+12 -4.0118e+13 -2.04627e+13 -1.1145e+14)
(-5.23611e+13 -2.49907e+12 -9.06926e+12 -3.86682e+13 -3.56435e+13 -1.23662e+14)
(-5.19809e+13 2.16769e+11 -6.82453e+12 -3.84e+13 -4.13936e+13 -1.28284e+14)
(-4.69359e+13 2.15935e+12 -1.68378e+12 -3.63248e+13 -3.4975e+13 -1.15686e+14)
(-3.8277e+13 2.30659e+12 1.95137e+12 -3.17481e+13 -2.18598e+13 -9.0092e+13)
(-2.96479e+13 1.05075e+12 1.75338e+12 -2.62325e+13 -1.02315e+13 -6.43564e+13)
(-2.42674e+13 -4.85967e+11 -1.52646e+12 -2.20253e+13 -5.32811e+12 -4.94935e+13)
(-2.36188e+13 -1.45178e+12 -5.14409e+12 -2.0872e+13 -7.69778e+12 -4.98312e+13)
(-2.65922e+13 -1.58349e+12 -6.30058e+12 -2.23177e+13 -1.47797e+13 -6.1262e+13)
(-3.06552e+13 -9.08505e+11 -4.06531e+12 -2.43991e+13 -2.2619e+13 -7.50689e+13)
(-3.3593e+13 3.819e+11 6.38759e+10 -2.57598e+13 -2.70003e+13 -8.34043e+13)
(-3.50412e+13 1.68253e+12 3.34919e+12 -2.70837e+13 -2.55654e+13 -8.43659e+13)
(-3.63794e+13 1.89011e+12 3.86749e+12 -2.99133e+13 -2.04812e+13 -8.25803e+13)
(-3.95638e+13 4.15579e+11 1.63409e+12 -3.43986e+13 -1.87523e+13 -8.62079e+13)
(-4.57708e+13 -1.75888e+12 -1.45459e+12 -3.95617e+13 -2.63778e+13 -1.01072e+14)
(-5.38983e+13 -2.66243e+12 -2.94873e+12 -4.41271e+13 -4.21114e+13 -1.24688e+14)
(-6.12491e+13 -1.21521e+12 -1.31205e+12 -4.77472e+13 -5.65631e+13 -1.47826e+14)
(-6.51693e+13 1.40912e+12 3.69206e+12 -5.05115e+13 -5.93593e+13 -1.6024e+14)
(-6.34234e+13 2.98716e+12 1.01562e+13 -5.07396e+13 -4.88978e+13 -1.54537e+14)
(-5.72446e+13 2.51956e+12 1.48058e+13 -4.7741e+13 -3.19956e+13 -1.3532e+14)
(-4.97017e+13 8.20704e+11 1.61705e+13 -4.24993e+13 -1.76832e+13 -1.13945e+14)
(-4.25917e+13 -6.16001e+11 1.58071e+13 -3.64507e+13 -1.10432e+13 -9.78109e+13)
(-3.30123e+13 -1.04102e+12 1.6594e+13 -2.92995e+13 -1.21286e+13 -8.42946e+13)
(-1.73258e+13 -1.62942e+11 1.32179e+13 -2.6631e+13 -1.8992e+13 -8.39046e+13)
(-6.80546e+13 1.0277e+12 -3.03878e+13 -7.46575e+13 -8.87543e+13 -3.69601e+14)
(-9.76291e+13 -6.69793e+10 -1.19535e+13 -8.26833e+13 -7.343e+13 -2.78482e+14)
(-8.85994e+13 7.78999e+11 8.96268e+12 -7.97452e+13 -4.95065e+13 -2.16705e+14)
(-6.95652e+13 8.40898e+11 1.69398e+13 -6.45246e+13 -2.40682e+13 -1.54867e+14)
(-5.47542e+13 -5.60388e+11 1.20597e+13 -4.99958e+13 -7.29931e+12 -1.11517e+14)
(-4.81529e+13 -2.41283e+12 1.42071e+12 -4.15331e+13 -4.94007e+12 -9.68303e+13)
(-4.84821e+13 -3.11399e+12 -7.32567e+12 -3.87242e+13 -1.45725e+13 -1.0549e+14)
(-5.11603e+13 -1.92437e+12 -9.9739e+12 -3.89176e+13 -2.67677e+13 -1.21103e+14)
(-5.08317e+13 1.8574e+11 -6.67095e+12 -3.86885e+13 -3.17195e+13 -1.25463e+14)
(-4.46875e+13 1.62425e+12 -1.1621e+12 -3.52651e+13 -2.71882e+13 -1.09811e+14)
(-3.46069e+13 1.67057e+12 2.10394e+12 -2.89593e+13 -1.73612e+13 -8.07526e+13)
(-2.50994e+13 6.87521e+11 1.28509e+12 -2.24134e+13 -8.51966e+12 -5.32321e+13)
(-1.97205e+13 -4.49819e+11 -2.32986e+12 -1.82518e+13 -4.75538e+12 -3.87884e+13)
(-1.9723e+13 -1.11244e+12 -5.82697e+12 -1.78824e+13 -6.58186e+12 -4.09023e+13)
(-2.35505e+13 -1.13046e+12 -6.57904e+12 -2.03152e+13 -1.20649e+13 -5.4333e+13)
(-2.82434e+13 -5.60558e+11 -3.85411e+12 -2.31612e+13 -1.80583e+13 -6.94969e+13)
(-3.12638e+13 4.11784e+11 8.02386e+11 -2.47185e+13 -2.12924e+13 -7.79296e+13)
(-3.20913e+13 1.31824e+12 4.59235e+12 -2.53941e+13 -2.01576e+13 -7.73122e+13)
(-3.23093e+13 1.3659e+12 5.25748e+12 -2.6834e+13 -1.65982e+13 -7.26934e+13)
(-3.46725e+13 1.81979e+11 2.54371e+12 -3.01832e+13 -1.60312e+13 -7.42285e+13)
(-4.10519e+13 -1.43955e+12 -1.32356e+12 -3.5488e+13 -2.28218e+13 -8.96069e+13)
(-5.02127e+13 -2.00095e+12 -3.13279e+12 -4.1416e+13 -3.56705e+13 -1.16e+14)
(-5.84298e+13 -7.32469e+11 -9.74299e+11 -4.63279e+13 -4.70015e+13 -1.4128e+14)
(-6.19999e+13 1.3492e+12 4.72584e+12 -4.89374e+13 -4.86123e+13 -1.52405e+14)
(-5.90782e+13 2.48919e+12 1.1124e+13 -4.78384e+13 -3.95523e+13 -1.4328e+14)
(-5.20256e+13 2.00266e+12 1.4893e+13 -4.373e+13 -2.52733e+13 -1.21804e+14)
(-4.48159e+13 6.03636e+11 1.53633e+13 -3.87687e+13 -1.2939e+13 -1.01658e+14)
(-3.91822e+13 -5.3695e+11 1.493e+13 -3.4352e+13 -6.90272e+12 -8.96957e+13)
(-3.1382e+13 -8.83826e+11 1.66086e+13 -2.92624e+13 -8.01415e+12 -8.08459e+13)
(-1.76269e+13 3.04769e+10 1.39477e+13 -2.89655e+13 -1.62012e+13 -8.52826e+13)
(-6.13649e+13 5.54792e+11 -3.12138e+13 -7.0718e+13 -5.70184e+13 -3.32656e+14)
(-8.88572e+13 -1.85486e+12 -1.6435e+13 -7.76184e+13 -5.6123e+13 -2.53676e+14)
(-8.21381e+13 -4.26336e+11 4.96472e+12 -7.54456e+13 -4.15112e+13 -2.01587e+14)
(-6.44155e+13 1.86776e+11 1.37859e+13 -6.05326e+13 -2.08136e+13 -1.4367e+14)
(-5.0309e+13 -6.372e+11 9.54503e+12 -4.63284e+13 -5.79039e+12 -1.0189e+14)
(-4.46242e+13 -1.88923e+12 -6.08711e+11 -3.88887e+13 -2.56316e+12 -8.9066e+13)
(-4.61498e+13 -2.30717e+12 -8.72638e+12 -3.77086e+13 -9.43723e+12 -1.00206e+14)
(-4.96653e+13 -1.36625e+12 -1.04791e+13 -3.91602e+13 -1.89041e+13 -1.17346e+14)
(-4.91501e+13 1.71502e+11 -6.44897e+12 -3.88282e+13 -2.31823e+13 -1.20758e+14)
(-4.21253e+13 1.14218e+12 -8.34254e+11 -3.41922e+13 -2.04205e+13 -1.02778e+14)
(-3.10837e+13 1.09739e+12 2.02568e+12 -2.64316e+13 -1.36073e+13 -7.16779e+13)
(-2.10792e+13 3.64538e+11 7.35105e+11 -1.90614e+13 -7.31636e+12 -4.35038e+13)
(-1.5814e+13 -4.08811e+11 -3.02536e+12 -1.49773e+13 -4.60573e+12 -2.97829e+13)
(-1.63105e+13 -7.95681e+11 -6.28355e+12 -1.52711e+13 -5.94666e+12 -3.31953e+13)
(-2.06833e+13 -7.13314e+11 -6.61265e+12 -1.84979e+13 -9.96991e+12 -4.77208e+13)
(-2.5688e+13 -2.46855e+11 -3.48333e+12 -2.19203e+13 -1.42926e+13 -6.32947e+13)
(-2.86257e+13 4.27918e+11 1.50045e+12 -2.35788e+13 -1.65171e+13 -7.13005e+13)
(-2.89553e+13 9.75651e+11 5.5396e+12 -2.36874e+13 -1.56714e+13 -6.94582e+13)
(-2.84358e+13 8.87692e+11 6.22573e+12 -2.40044e+13 -1.34402e+13 -6.31904e+13)
(-3.03236e+13 -2.0524e+10 3.18389e+12 -2.64789e+13 -1.38167e+13 -6.37349e+13)
(-3.68602e+13 -1.13446e+12 -1.12806e+12 -3.19456e+13 -1.97555e+13 -7.96047e+13)
(-4.66431e+13 -1.39346e+12 -3.02529e+12 -3.8979e+13 -2.99576e+13 -1.07492e+14)
(-5.52392e+13 -3.12283e+11 -4.22833e+11 -4.48688e+13 -3.85193e+13 -1.33392e+14)
(-5.8291e+13 1.25331e+12 5.68935e+12 -4.72341e+13 -3.91997e+13 -1.42709e+14)
(-5.44428e+13 1.9891e+12 1.18131e+13 -4.50025e+13 -3.15162e+13 -1.30941e+14)
(-4.69423e+13 1.49022e+12 1.47362e+13 -4.00837e+13 -1.96404e+13 -1.0849e+14)
(-4.03828e+13 3.72691e+11 1.45156e+13 -3.56064e+13 -9.06417e+12 -9.04666e+13)
(-3.63467e+13 -4.99242e+11 1.42185e+13 -3.28735e+13 -3.53286e+12 -8.2978e+13)
(-3.02986e+13 -8.03286e+11 1.69301e+13 -2.98096e+13 -4.75714e+12 -7.89037e+13)
(-1.83894e+13 2.03563e+11 1.4996e+13 -3.19445e+13 -1.45436e+13 -8.90331e+13)
(-5.27443e+13 2.36061e+11 -3.15655e+13 -6.54013e+13 -3.17733e+13 -2.8515e+14)
(-7.91439e+13 -3.14166e+12 -2.0891e+13 -7.20847e+13 -4.20441e+13 -2.25506e+14)
(-7.57651e+13 -1.35167e+12 9.34496e+11 -7.11018e+13 -3.47382e+13 -1.86729e+14)
(-6.00778e+13 -3.5048e+11 1.0538e+13 -5.69926e+13 -1.79971e+13 -1.34645e+14)
(-4.69988e+13 -6.93799e+11 7.06552e+12 -4.34748e+13 -4.52267e+12 -9.5285e+13)
(-4.20964e+13 -1.41719e+12 -2.32142e+12 -3.70302e+13 -5.64227e+11 -8.39419e+13)
(-4.4327e+13 -1.58267e+12 -9.64437e+12 -3.71029e+13 -5.03945e+12 -9.61433e+13)
(-4.81527e+13 -8.6359e+11 -1.06111e+13 -3.93976e+13 -1.21657e+13 -1.13288e+14)
(-4.72438e+13 1.72201e+11 -6.12969e+12 -3.88155e+13 -1.59449e+13 -1.15182e+14)
(-3.95002e+13 7.43051e+11 -6.22763e+11 -3.31223e+13 -1.47936e+13 -9.53813e+13)
(-2.7855e+13 6.25289e+11 1.80083e+12 -2.42054e+13 -1.06296e+13 -6.32751e+13)
(-1.76522e+13 1.065e+11 1.52706e+11 -1.6232e+13 -6.56902e+12 -3.52789e+13)
(-1.25871e+13 -3.61e+11 -3.61252e+12 -1.2258e+13 -4.78893e+12 -2.25017e+13)
(-1.34485e+13 -5.18853e+11 -6.54858e+12 -1.30862e+13 -5.72123e+12 -2.68466e+13)
(-1.81122e+13 -3.584e+11 -6.44956e+12 -1.69011e+13 -8.48273e+12 -4.17665e+13)
(-2.31697e+13 1.06803e+10 -2.9933e+12 -2.07014e+13 -1.13771e+13 -5.70204e+13)
(-2.58958e+13 4.26963e+11 2.14881e+12 -2.23628e+13 -1.27655e+13 -6.42092e+13)
(-2.58342e+13 6.74318e+11 6.22577e+12 -2.19963e+13 -1.21754e+13 -6.14321e+13)
(-2.489e+13 4.83e+11 6.82976e+12 -2.14717e+13 -1.10124e+13 -5.44344e+13)
(-2.65804e+13 -1.81432e+11 3.58554e+12 -2.33344e+13 -1.20629e+13 -5.48385e+13)
(-3.32625e+13 -8.64284e+11 -8.95825e+11 -2.89661e+13 -1.71441e+13 -7.11942e+13)
(-4.33397e+13 -8.80041e+11 -2.69517e+12 -3.68201e+13 -2.50186e+13 -9.96091e+13)
(-5.19318e+13 1.4935e+10 2.79969e+11 -4.33545e+13 -3.12545e+13 -1.24989e+14)
(-5.4353e+13 1.1213e+12 6.5641e+12 -4.53951e+13 -3.12933e+13 -1.3216e+14)
(-4.97957e+13 1.51249e+12 1.22409e+13 -4.22564e+13 -2.49303e+13 -1.18373e+14)
(-4.21993e+13 1.0126e+12 1.43428e+13 -3.68637e+13 -1.51812e+13 -9.59315e+13)
(-3.65598e+13 1.47656e+11 1.35942e+13 -3.30967e+13 -6.09305e+12 -8.07411e+13)
(-3.42573e+13 -4.92862e+11 1.36021e+13 -3.20912e+13 -9.17161e+11 -7.80785e+13)
(-2.99977e+13 -7.90064e+11 1.74496e+13 -3.09636e+13 -2.25939e+12 -7.91893e+13)
(-1.98162e+13 3.53603e+11 1.63156e+13 -3.54974e+13 -1.37484e+13 -9.63616e+13)
(-4.30388e+13 9.89983e+10 -3.14342e+13 -5.89486e+13 -1.38607e+13 -2.31828e+14)
(-6.91477e+13 -3.82264e+12 -2.50819e+13 -6.62028e+13 -3.13659e+13 -1.96087e+14)
(-6.978e+13 -1.9427e+12 -3.01259e+12 -6.68066e+13 -2.90031e+13 -1.72863e+14)
(-5.6652e+13 -7.60407e+11 7.25813e+12 -5.39637e+13 -1.53625e+13 -1.2798e+14)
(-4.48609e+13 -7.39133e+11 4.63721e+12 -4.1464e+13 -3.271e+12 -9.17327e+13)
(-4.06455e+13 -1.01691e+12 -3.76006e+12 -3.59794e+13 1.23553e+12 -8.1628e+13)
(-4.31933e+13 -9.6686e+11 -1.01497e+13 -3.69384e+13 -1.25231e+12 -9.3831e+13)
(-4.6909e+13 -4.37581e+11 -1.04122e+13 -3.96743e+13 -6.47778e+12 -1.09832e+14)
(-4.54369e+13 1.8129e+11 -5.68855e+12 -3.87071e+13 -9.96115e+12 -1.09758e+14)
(-3.70799e+13 4.33288e+11 -4.43506e+11 -3.21151e+13 -1.02687e+13 -8.84363e+13)
(-2.50797e+13 2.66135e+11 1.52413e+12 -2.23313e+13 -8.38166e+12 -5.59778e+13)
(-1.48862e+13 -7.66949e+10 -4.04854e+11 -1.39629e+13 -6.2103e+12 -2.8682e+13)