/*--------------------------------*- C++ -*----------------------------------*\
| =========                 |                                                 |
| \\      /  F ield         | OpenFOAM: The Open Source CFD Toolbox           |
|  \\    /   O peration     | Version:  2106                                  |
|   \\  /    A nd           | Website:  www.openfoam.com                      |
|    \\/     M anipulation  |                                                 |
\*---------------------------------------------------------------------------*/
FoamFile
{
    version     2.0;
    format      ascii;
    arch        "LSB;label=32;scalar=64";
    class       volVectorField;
    location    "89";
    object      D;
}
// * * * * * * * * * * * * * * * * * * * * * * * * * * * * * * * * * * * * * //

dimensions      [0 1 0 0 0 0 0];

internalField   nonuniform List<vector> 
9000
(
(1.14606e-05 2.1009e-05 3.25416e-06)
(1.33142e-06 2.20826e-05 1.66392e-07)
(2.1713e-07 2.3444e-05 1.32548e-06)
(3.67575e-08 2.37493e-05 1.54156e-06)
(4.29422e-09 2.37624e-05 1.54701e-06)
(7.53397e-10 2.3755e-05 1.54272e-06)
(6.50852e-10 2.37537e-05 1.5421e-06)
(5.4072e-10 2.37539e-05 1.54232e-06)
(3.84647e-10 2.37542e-05 1.54252e-06)
(2.59561e-10 2.37544e-05 1.54264e-06)
(1.70987e-10 2.37545e-05 1.54272e-06)
(1.09693e-10 2.37545e-05 1.54277e-06)
(6.69968e-11 2.37546e-05 1.5428e-06)
(3.60083e-11 2.37546e-05 1.54281e-06)
(1.13532e-11 2.37546e-05 1.54282e-06)
(-1.13135e-11 2.37546e-05 1.54282e-06)
(-3.59754e-11 2.37546e-05 1.54281e-06)
(-6.6977e-11 2.37546e-05 1.5428e-06)
(-1.09691e-10 2.37545e-05 1.54277e-06)
(-1.71005e-10 2.37545e-05 1.54272e-06)
(-2.59599e-10 2.37544e-05 1.54264e-06)
(-3.84703e-10 2.37542e-05 1.54252e-06)
(-5.40793e-10 2.37539e-05 1.54232e-06)
(-6.5093e-10 2.37537e-05 1.5421e-06)
(-7.53445e-10 2.3755e-05 1.54272e-06)
(-4.29417e-09 2.37624e-05 1.54701e-06)
(-3.67573e-08 2.37493e-05 1.54156e-06)
(-2.17129e-07 2.3444e-05 1.32549e-06)
(-1.33141e-06 2.20826e-05 1.66392e-07)
(-1.14606e-05 2.1009e-05 3.25416e-06)
(1.11241e-05 1.26486e-05 -5.84084e-06)
(1.22952e-06 1.32581e-05 -9.26628e-06)
(1.40558e-07 1.40799e-05 -8.68889e-06)
(1.8706e-08 1.42851e-05 -8.60749e-06)
(3.50871e-09 1.42939e-05 -8.6081e-06)
(1.22732e-09 1.4288e-05 -8.60919e-06)
(7.22572e-10 1.42869e-05 -8.60926e-06)
(5.05101e-10 1.42871e-05 -8.60919e-06)
(3.53605e-10 1.42872e-05 -8.60915e-06)
(2.40306e-10 1.42873e-05 -8.60912e-06)
(1.58908e-10 1.42874e-05 -8.60909e-06)
(1.02133e-10 1.42874e-05 -8.60908e-06)
(6.24795e-11 1.42874e-05 -8.60907e-06)
(3.3623e-11 1.42874e-05 -8.60907e-06)
(1.06062e-11 1.42875e-05 -8.60907e-06)
(-1.0576e-11 1.42875e-05 -8.60907e-06)
(-3.35983e-11 1.42874e-05 -8.60907e-06)
(-6.2465e-11 1.42874e-05 -8.60907e-06)
(-1.02133e-10 1.42874e-05 -8.60908e-06)
(-1.58923e-10 1.42874e-05 -8.60909e-06)
(-2.40336e-10 1.42873e-05 -8.60912e-06)
(-3.53649e-10 1.42872e-05 -8.60915e-06)
(-5.05156e-10 1.42871e-05 -8.60919e-06)
(-7.22633e-10 1.42869e-05 -8.60926e-06)
(-1.22738e-09 1.4288e-05 -8.60919e-06)
(-3.50875e-09 1.42939e-05 -8.6081e-06)
(-1.87059e-08 1.42851e-05 -8.60749e-06)
(-1.40557e-07 1.40799e-05 -8.68889e-06)
(-1.22952e-06 1.32581e-05 -9.26628e-06)
(-1.11241e-05 1.26486e-05 -5.84084e-06)
(1.11864e-05 7.81708e-06 -7.41829e-06)
(1.22489e-06 8.23871e-06 -1.09514e-05)
(1.2738e-07 8.7892e-06 -1.04706e-05)
(1.30367e-08 8.93468e-06 -1.04146e-05)
(2.99849e-09 8.94253e-06 -1.04165e-05)
(1.39294e-09 8.93831e-06 -1.04169e-05)
(7.57059e-10 8.93738e-06 -1.04169e-05)
(4.88027e-10 8.93748e-06 -1.04168e-05)
(3.36671e-10 8.9376e-06 -1.04168e-05)
(2.29257e-10 8.93767e-06 -1.04168e-05)
(1.51872e-10 8.93771e-06 -1.04168e-05)
(9.77009e-11 8.93773e-06 -1.04168e-05)
(5.9817e-11 8.93775e-06 -1.04168e-05)
(3.22127e-11 8.93775e-06 -1.04168e-05)
(1.01637e-11 8.93776e-06 -1.04168e-05)
(-1.01402e-11 8.93776e-06 -1.04168e-05)
(-3.21936e-11 8.93775e-06 -1.04168e-05)
(-5.98062e-11 8.93775e-06 -1.04168e-05)
(-9.7701e-11 8.93773e-06 -1.04168e-05)
(-1.51885e-10 8.93771e-06 -1.04168e-05)
(-2.29281e-10 8.93767e-06 -1.04168e-05)
(-3.36707e-10 8.9376e-06 -1.04168e-05)
(-4.88071e-10 8.93748e-06 -1.04168e-05)
(-7.57111e-10 8.93738e-06 -1.04169e-05)
(-1.393e-09 8.93831e-06 -1.04169e-05)
(-2.99856e-09 8.94253e-06 -1.04165e-05)
(-1.30367e-08 8.93468e-06 -1.04146e-05)
(-1.2738e-07 8.7892e-06 -1.04706e-05)
(-1.22489e-06 8.23871e-06 -1.09514e-05)
(-1.11864e-05 7.81708e-06 -7.41829e-06)
(1.1569e-05 4.91291e-06 -7.09613e-06)
(1.26634e-06 5.18181e-06 -1.07557e-05)
(1.40155e-07 5.57978e-06 -1.02475e-05)
(1.40463e-08 5.68663e-06 -1.01875e-05)
(2.8403e-09 5.69397e-06 -1.01894e-05)
(1.38915e-09 5.69117e-06 -1.01899e-05)
(7.60835e-10 5.69046e-06 -1.01899e-05)
(4.79431e-10 5.69051e-06 -1.01898e-05)
(3.27673e-10 5.69059e-06 -1.01898e-05)
(2.22904e-10 5.69064e-06 -1.01898e-05)
(1.477e-10 5.69067e-06 -1.01898e-05)
(9.50379e-11 5.69069e-06 -1.01898e-05)
(5.82037e-11 5.6907e-06 -1.01898e-05)
(3.13535e-11 5.6907e-06 -1.01898e-05)
(9.89321e-12 5.6907e-06 -1.01898e-05)
(-9.87481e-12 5.6907e-06 -1.01898e-05)
(-3.13387e-11 5.6907e-06 -1.01898e-05)
(-5.81955e-11 5.6907e-06 -1.01898e-05)
(-9.50388e-11 5.69069e-06 -1.01898e-05)
(-1.47711e-10 5.69067e-06 -1.01898e-05)
(-2.22925e-10 5.69064e-06 -1.01898e-05)
(-3.27704e-10 5.69059e-06 -1.01898e-05)
(-4.7947e-10 5.69051e-06 -1.01898e-05)
(-7.60883e-10 5.69046e-06 -1.01899e-05)
(-1.38922e-09 5.69117e-06 -1.01899e-05)
(-2.84038e-09 5.69397e-06 -1.01894e-05)
(-1.40463e-08 5.68663e-06 -1.01875e-05)
(-1.40154e-07 5.57978e-06 -1.02475e-05)
(-1.26634e-06 5.18181e-06 -1.07557e-05)
(-1.1569e-05 4.91291e-06 -7.09613e-06)
(1.20446e-05 3.10122e-06 -6.67896e-06)
(1.32436e-06 3.24757e-06 -1.04809e-05)
(1.58527e-07 3.54256e-06 -9.93599e-06)
(1.74404e-08 3.62236e-06 -9.86947e-06)
(2.94428e-09 3.62897e-06 -9.8713e-06)
(1.32331e-09 3.62723e-06 -9.87193e-06)
(7.46146e-10 3.6267e-06 -9.8719e-06)
(4.73268e-10 3.62673e-06 -9.87186e-06)
(3.22191e-10 3.62679e-06 -9.87184e-06)
(2.1871e-10 3.62682e-06 -9.87182e-06)
(1.44832e-10 3.62684e-06 -9.87181e-06)
(9.31766e-11 3.62686e-06 -9.8718e-06)
(5.70647e-11 3.62686e-06 -9.8718e-06)
(3.07432e-11 3.62687e-06 -9.8718e-06)
(9.7003e-12 3.62687e-06 -9.8718e-06)
(-9.68629e-12 3.62687e-06 -9.8718e-06)
(-3.07321e-11 3.62687e-06 -9.8718e-06)
(-5.7059e-11 3.62686e-06 -9.8718e-06)
(-9.31781e-11 3.62686e-06 -9.8718e-06)
(-1.44842e-10 3.62684e-06 -9.87181e-06)
(-2.18728e-10 3.62682e-06 -9.87182e-06)
(-3.22218e-10 3.62679e-06 -9.87184e-06)
(-4.73302e-10 3.62673e-06 -9.87186e-06)
(-7.46191e-10 3.6267e-06 -9.8719e-06)
(-1.32337e-09 3.62723e-06 -9.87193e-06)
(-2.94435e-09 3.62897e-06 -9.8713e-06)
(-1.74404e-08 3.62236e-06 -9.86947e-06)
(-1.58526e-07 3.54256e-06 -9.93599e-06)
(-1.32436e-06 3.24757e-06 -1.04809e-05)
(-1.20446e-05 3.10122e-06 -6.67896e-06)
(1.24613e-05 1.9561e-06 -6.44618e-06)
(1.3818e-06 2.02179e-06 -1.03705e-05)
(1.75153e-07 2.23842e-06 -9.79969e-06)
(2.10605e-08 2.29819e-06 -9.72895e-06)
(3.18626e-09 2.30389e-06 -9.73074e-06)
(1.25338e-09 2.30287e-06 -9.73145e-06)
(7.23838e-10 2.3025e-06 -9.73143e-06)
(4.67184e-10 2.30251e-06 -9.73139e-06)
(3.17998e-10 2.30255e-06 -9.73137e-06)
(2.15404e-10 2.30258e-06 -9.73135e-06)
(1.42503e-10 2.30259e-06 -9.73134e-06)
(9.16446e-11 2.3026e-06 -9.73133e-06)
(5.61204e-11 2.30261e-06 -9.73133e-06)
(3.02349e-11 2.30261e-06 -9.73133e-06)
(9.53918e-12 2.30261e-06 -9.73132e-06)
(-9.52918e-12 2.30261e-06 -9.73132e-06)
(-3.02271e-11 2.30261e-06 -9.73133e-06)
(-5.61168e-11 2.30261e-06 -9.73133e-06)
(-9.16468e-11 2.3026e-06 -9.73133e-06)
(-1.42512e-10 2.30259e-06 -9.73134e-06)
(-2.1542e-10 2.30258e-06 -9.73135e-06)
(-3.18022e-10 2.30255e-06 -9.73137e-06)
(-4.67215e-10 2.30251e-06 -9.73139e-06)
(-7.2388e-10 2.3025e-06 -9.73143e-06)
(-1.25344e-09 2.30287e-06 -9.73145e-06)
(-3.18632e-09 2.30389e-06 -9.73074e-06)
(-2.10604e-08 2.29819e-06 -9.72895e-06)
(-1.75153e-07 2.23842e-06 -9.79969e-06)
(-1.3818e-06 2.02179e-06 -1.03705e-05)
(-1.24613e-05 1.9561e-06 -6.44618e-06)
(1.27674e-05 1.23175e-06 -6.3352e-06)
(1.42975e-06 1.25348e-06 -1.03482e-05)
(1.88456e-07 1.40879e-06 -9.76089e-06)
(2.41436e-08 1.45322e-06 -9.68778e-06)
(3.46966e-09 1.45798e-06 -9.68957e-06)
(1.20077e-09 1.45741e-06 -9.69032e-06)
(7.00952e-10 1.45717e-06 -9.69031e-06)
(4.60811e-10 1.45717e-06 -9.69027e-06)
(3.14251e-10 1.4572e-06 -9.69025e-06)
(2.12502e-10 1.45722e-06 -9.69023e-06)
(1.40434e-10 1.45723e-06 -9.69022e-06)
(9.02727e-11 1.45724e-06 -9.69021e-06)
(5.52711e-11 1.45724e-06 -9.69021e-06)
(2.97765e-11 1.45724e-06 -9.69021e-06)
(9.39372e-12 1.45724e-06 -9.69021e-06)
(-9.38738e-12 1.45724e-06 -9.69021e-06)
(-2.97718e-11 1.45724e-06 -9.69021e-06)
(-5.52695e-11 1.45724e-06 -9.69021e-06)
(-9.02757e-11 1.45724e-06 -9.69021e-06)
(-1.40443e-10 1.45723e-06 -9.69022e-06)
(-2.12516e-10 1.45722e-06 -9.69023e-06)
(-3.14273e-10 1.4572e-06 -9.69025e-06)
(-4.60841e-10 1.45717e-06 -9.69027e-06)
(-7.00993e-10 1.45717e-06 -9.69031e-06)
(-1.20083e-09 1.45741e-06 -9.69032e-06)
(-3.46971e-09 1.45798e-06 -9.68957e-06)
(-2.41436e-08 1.45322e-06 -9.68778e-06)
(-1.88455e-07 1.40879e-06 -9.76089e-06)
(-1.42975e-06 1.25348e-06 -1.03482e-05)
(-1.27674e-05 1.23176e-06 -6.3352e-06)
(1.29699e-05 7.74557e-07 -6.27927e-06)
(1.46544e-06 7.76429e-07 -1.03507e-05)
(1.98631e-07 8.84804e-07 -9.75287e-06)
(2.65687e-08 9.17343e-07 -9.67839e-06)
(3.7394e-09 9.21208e-07 -9.6802e-06)
(1.16779e-09 9.2093e-07 -9.68096e-06)
(6.80952e-10 9.20767e-07 -9.68095e-06)
(4.54486e-10 9.20769e-07 -9.68092e-06)
(3.1075e-10 9.20791e-07 -9.68089e-06)
(2.09878e-10 9.20805e-07 -9.68088e-06)
(1.38561e-10 9.20814e-07 -9.68087e-06)
(8.90253e-11 9.20819e-07 -9.68086e-06)
(5.44967e-11 9.20822e-07 -9.68086e-06)
(2.93579e-11 9.20824e-07 -9.68085e-06)
(9.26081e-12 9.20825e-07 -9.68085e-06)
(-9.2577e-12 9.20825e-07 -9.68085e-06)
(-2.93559e-11 9.20824e-07 -9.68085e-06)
(-5.44968e-11 9.20822e-07 -9.68086e-06)
(-8.90288e-11 9.20819e-07 -9.68086e-06)
(-1.38569e-10 9.20814e-07 -9.68087e-06)
(-2.09891e-10 9.20805e-07 -9.68088e-06)
(-3.1077e-10 9.20791e-07 -9.68089e-06)
(-4.54514e-10 9.20769e-07 -9.68092e-06)
(-6.80993e-10 9.20767e-07 -9.68095e-06)
(-1.16784e-09 9.2093e-07 -9.68096e-06)
(-3.73945e-09 9.21208e-07 -9.6802e-06)
(-2.65687e-08 9.17343e-07 -9.67839e-06)
(-1.98631e-07 8.84804e-07 -9.75287e-06)
(-1.46544e-06 7.76429e-07 -1.03507e-05)
(-1.29699e-05 7.74557e-07 -6.27927e-06)
(1.30954e-05 4.86352e-07 -6.24733e-06)
(1.48989e-06 4.81329e-07 -1.03552e-05)
(2.06211e-07 5.55075e-07 -9.75078e-06)
(2.84214e-08 5.78462e-07 -9.67547e-06)
(3.97234e-09 5.81525e-07 -9.67728e-06)
(1.14981e-09 5.81417e-07 -9.67806e-06)
(6.64914e-10 5.81314e-07 -9.67805e-06)
(4.48623e-10 5.81315e-07 -9.67801e-06)
(3.07528e-10 5.81332e-07 -9.67799e-06)
(2.07532e-10 5.81343e-07 -9.67797e-06)
(1.36892e-10 5.81349e-07 -9.67796e-06)
(8.79098e-11 5.81353e-07 -9.67796e-06)
(5.38026e-11 5.81356e-07 -9.67795e-06)
(2.89824e-11 5.81357e-07 -9.67795e-06)
(9.14157e-12 5.81358e-07 -9.67795e-06)
(-9.14117e-12 5.81358e-07 -9.67795e-06)
(-2.89826e-11 5.81357e-07 -9.67795e-06)
(-5.38043e-11 5.81356e-07 -9.67795e-06)
(-8.79139e-11 5.81353e-07 -9.67796e-06)
(-1.36899e-10 5.81349e-07 -9.67796e-06)
(-2.07544e-10 5.81343e-07 -9.67797e-06)
(-3.07546e-10 5.81332e-07 -9.67799e-06)
(-4.4865e-10 5.81315e-07 -9.67801e-06)
(-6.64954e-10 5.81314e-07 -9.67805e-06)
(-1.14986e-09 5.81417e-07 -9.67806e-06)
(-3.97239e-09 5.81525e-07 -9.67728e-06)
(-2.84214e-08 5.78462e-07 -9.67547e-06)
(-2.0621e-07 5.55075e-07 -9.75078e-06)
(-1.48988e-06 4.81329e-07 -1.03552e-05)
(-1.30954e-05 4.86352e-07 -6.24733e-06)
(1.31703e-05 3.04595e-07 -6.22767e-06)
(1.50565e-06 2.985e-07 -1.03576e-05)
(2.11708e-07 3.47584e-07 -9.74917e-06)
(2.98162e-08 3.64045e-07 -9.67333e-06)
(4.16304e-09 3.66407e-07 -9.67515e-06)
(1.14143e-09 3.66394e-07 -9.67593e-06)
(6.52683e-10 3.66331e-07 -9.67592e-06)
(4.43504e-10 3.66333e-07 -9.67588e-06)
(3.04668e-10 3.66345e-07 -9.67586e-06)
(2.05491e-10 3.66354e-07 -9.67585e-06)
(1.35445e-10 3.66359e-07 -9.67584e-06)
(8.69409e-11 3.66362e-07 -9.67583e-06)
(5.31986e-11 3.66364e-07 -9.67583e-06)
(2.86552e-11 3.66365e-07 -9.67582e-06)
(9.0377e-12 3.66366e-07 -9.67582e-06)
(-9.03946e-12 3.66366e-07 -9.67582e-06)
(-2.86572e-11 3.66365e-07 -9.67582e-06)
(-5.32014e-11 3.66364e-07 -9.67583e-06)
(-8.69455e-11 3.66362e-07 -9.67583e-06)
(-1.35452e-10 3.66359e-07 -9.67584e-06)
(-2.05502e-10 3.66354e-07 -9.67585e-06)
(-3.04685e-10 3.66345e-07 -9.67586e-06)
(-4.43529e-10 3.66333e-07 -9.67588e-06)
(-6.52723e-10 3.66331e-07 -9.67592e-06)
(-1.14148e-09 3.66394e-07 -9.67593e-06)
(-4.16309e-09 3.66407e-07 -9.67515e-06)
(-2.98162e-08 3.64045e-07 -9.67333e-06)
(-2.11708e-07 3.47584e-07 -9.74917e-06)
(-1.50565e-06 2.985e-07 -1.03576e-05)
(-1.31703e-05 3.04596e-07 -6.22767e-06)
(1.32141e-05 1.89631e-07 -6.21543e-06)
(1.5154e-06 1.84545e-07 -1.03585e-05)
(2.15577e-07 2.16534e-07 -9.74771e-06)
(3.08481e-08 2.27846e-07 -9.67153e-06)
(4.31348e-09 2.2961e-07 -9.67335e-06)
(1.1385e-09 2.29643e-07 -9.67414e-06)
(6.43659e-10 2.29607e-07 -9.67413e-06)
(4.39261e-10 2.2961e-07 -9.6741e-06)
(3.0224e-10 2.29619e-07 -9.67407e-06)
(2.0378e-10 2.29625e-07 -9.67406e-06)
(1.34235e-10 2.29629e-07 -9.67405e-06)
(8.61292e-11 2.29632e-07 -9.67404e-06)
(5.26915e-11 2.29633e-07 -9.67404e-06)
(2.83803e-11 2.29634e-07 -9.67404e-06)
(8.95045e-12 2.29634e-07 -9.67404e-06)
(-8.95385e-12 2.29634e-07 -9.67404e-06)
(-2.83837e-11 2.29634e-07 -9.67404e-06)
(-5.26953e-11 2.29633e-07 -9.67404e-06)
(-8.61342e-11 2.29632e-07 -9.67404e-06)
(-1.34242e-10 2.29629e-07 -9.67405e-06)
(-2.0379e-10 2.29625e-07 -9.67406e-06)
(-3.02256e-10 2.29619e-07 -9.67407e-06)
(-4.39286e-10 2.2961e-07 -9.6741e-06)
(-6.437e-10 2.29607e-07 -9.67413e-06)
(-1.13856e-09 2.29643e-07 -9.67414e-06)
(-4.31353e-09 2.2961e-07 -9.67335e-06)
(-3.08481e-08 2.27846e-07 -9.67153e-06)
(-2.15576e-07 2.16534e-07 -9.74771e-06)
(-1.5154e-06 1.84545e-07 -1.03585e-05)
(-1.32141e-05 1.89632e-07 -6.21543e-06)
(1.32396e-05 1.16312e-07 -6.20793e-06)
(1.52124e-06 1.12672e-07 -1.03588e-05)
(2.18205e-07 1.32976e-07 -9.74662e-06)
(3.15898e-08 1.40501e-07 -9.67024e-06)
(4.42765e-09 1.41762e-07 -9.67205e-06)
(1.13832e-09 1.41811e-07 -9.67284e-06)
(6.372e-10 1.41791e-07 -9.67283e-06)
(4.35925e-10 1.41794e-07 -9.6728e-06)
(3.00283e-10 1.41801e-07 -9.67278e-06)
(2.0241e-10 1.41805e-07 -9.67276e-06)
(1.33268e-10 1.41808e-07 -9.67275e-06)
(8.54797e-11 1.4181e-07 -9.67275e-06)
(5.22852e-11 1.41811e-07 -9.67274e-06)
(2.81597e-11 1.41812e-07 -9.67274e-06)
(8.88047e-12 1.41812e-07 -9.67274e-06)
(-8.88506e-12 1.41812e-07 -9.67274e-06)
(-2.81642e-11 1.41812e-07 -9.67274e-06)
(-5.22896e-11 1.41811e-07 -9.67274e-06)
(-8.54851e-11 1.4181e-07 -9.67275e-06)
(-1.33275e-10 1.41809e-07 -9.67275e-06)
(-2.0242e-10 1.41805e-07 -9.67276e-06)
(-3.00299e-10 1.41801e-07 -9.67278e-06)
(-4.35951e-10 1.41794e-07 -9.6728e-06)
(-6.37243e-10 1.41791e-07 -9.67283e-06)
(-1.13838e-09 1.41811e-07 -9.67284e-06)
(-4.42771e-09 1.41762e-07 -9.67205e-06)
(-3.15898e-08 1.40501e-07 -9.67024e-06)
(-2.18205e-07 1.32976e-07 -9.74662e-06)
(-1.52124e-06 1.12672e-07 -1.03588e-05)
(-1.32396e-05 1.16313e-07 -6.20793e-06)
(1.32543e-05 6.85667e-08 -6.20349e-06)
(1.52464e-06 6.62317e-08 -1.03589e-05)
(2.19906e-07 7.85041e-08 -9.74591e-06)
(3.20969e-08 8.32295e-08 -9.66942e-06)
(4.50948e-09 8.40682e-08 -9.67123e-06)
(1.13924e-09 8.41143e-08 -9.67202e-06)
(6.32782e-10 8.41045e-08 -9.67201e-06)
(4.33473e-10 8.41066e-08 -9.67198e-06)
(2.98814e-10 8.41111e-08 -9.67196e-06)
(2.01385e-10 8.41145e-08 -9.67194e-06)
(1.32546e-10 8.41166e-08 -9.67193e-06)
(8.49939e-11 8.41179e-08 -9.67192e-06)
(5.19807e-11 8.41186e-08 -9.67192e-06)
(2.79944e-11 8.4119e-08 -9.67192e-06)
(8.82801e-12 8.41192e-08 -9.67192e-06)
(-8.83342e-12 8.41192e-08 -9.67192e-06)
(-2.79995e-11 8.4119e-08 -9.67192e-06)
(-5.19857e-11 8.41186e-08 -9.67192e-06)
(-8.49995e-11 8.41179e-08 -9.67192e-06)
(-1.32554e-10 8.41166e-08 -9.67193e-06)
(-2.01396e-10 8.41145e-08 -9.67194e-06)
(-2.9883e-10 8.41112e-08 -9.67196e-06)
(-4.335e-10 8.41066e-08 -9.67198e-06)
(-6.32826e-10 8.41045e-08 -9.67201e-06)
(-1.13931e-09 8.41143e-08 -9.67202e-06)
(-4.50955e-09 8.40682e-08 -9.67123e-06)
(-3.20968e-08 8.32295e-08 -9.66942e-06)
(-2.19906e-07 7.85041e-08 -9.74591e-06)
(-1.52464e-06 6.62318e-08 -1.03589e-05)
(-1.32543e-05 6.85671e-08 -6.20349e-06)
(1.32623e-05 3.59075e-08 -6.20103e-06)
(1.5265e-06 3.46291e-08 -1.0359e-05)
(2.20914e-07 4.11644e-08 -9.74552e-06)
(3.24112e-08 4.37499e-08 -9.66895e-06)
(4.56216e-09 4.42279e-08 -9.67076e-06)
(1.1403e-09 4.42593e-08 -9.67155e-06)
(6.3003e-10 4.4255e-08 -9.67154e-06)
(4.31868e-10 4.42564e-08 -9.67151e-06)
(2.97837e-10 4.42591e-08 -9.67149e-06)
(2.00704e-10 4.42611e-08 -9.67147e-06)
(1.32067e-10 4.42624e-08 -9.67146e-06)
(8.46709e-11 4.42631e-08 -9.67146e-06)
(5.17781e-11 4.42635e-08 -9.67145e-06)
(2.78843e-11 4.42638e-08 -9.67145e-06)
(8.79305e-12 4.42639e-08 -9.67145e-06)
(-8.79905e-12 4.42639e-08 -9.67145e-06)
(-2.78899e-11 4.42638e-08 -9.67145e-06)
(-5.17835e-11 4.42635e-08 -9.67145e-06)
(-8.46768e-11 4.42631e-08 -9.67146e-06)
(-1.32074e-10 4.42624e-08 -9.67146e-06)
(-2.00715e-10 4.42611e-08 -9.67147e-06)
(-2.97854e-10 4.42591e-08 -9.67149e-06)
(-4.31896e-10 4.42565e-08 -9.67151e-06)
(-6.30077e-10 4.4255e-08 -9.67154e-06)
(-1.14036e-09 4.42593e-08 -9.67155e-06)
(-4.56224e-09 4.42279e-08 -9.67076e-06)
(-3.24112e-08 4.37499e-08 -9.66895e-06)
(-2.20914e-07 4.11644e-08 -9.74552e-06)
(-1.5265e-06 3.46292e-08 -1.0359e-05)
(-1.32623e-05 3.59078e-08 -6.20103e-06)
(1.32658e-05 1.11508e-08 -6.19993e-06)
(1.52732e-06 1.07464e-08 -1.0359e-05)
(2.21381e-07 1.2793e-08 -9.74534e-06)
(3.25611e-08 1.36144e-08 -9.66874e-06)
(4.58793e-09 1.37695e-08 -9.67055e-06)
(1.14094e-09 1.37805e-08 -9.67134e-06)
(6.28709e-10 1.37793e-08 -9.67133e-06)
(4.31075e-10 1.37798e-08 -9.6713e-06)
(2.9735e-10 1.37807e-08 -9.67128e-06)
(2.00365e-10 1.37814e-08 -9.67127e-06)
(1.31828e-10 1.37818e-08 -9.67126e-06)
(8.45096e-11 1.3782e-08 -9.67125e-06)
(5.16768e-11 1.37822e-08 -9.67125e-06)
(2.78291e-11 1.37823e-08 -9.67124e-06)
(8.77549e-12 1.37823e-08 -9.67124e-06)
(-8.78196e-12 1.37823e-08 -9.67124e-06)
(-2.78353e-11 1.37823e-08 -9.67124e-06)
(-5.16826e-11 1.37822e-08 -9.67125e-06)
(-8.45159e-11 1.37821e-08 -9.67125e-06)
(-1.31836e-10 1.37818e-08 -9.67126e-06)
(-2.00376e-10 1.37814e-08 -9.67127e-06)
(-2.97367e-10 1.37807e-08 -9.67128e-06)
(-4.31104e-10 1.37798e-08 -9.6713e-06)
(-6.28759e-10 1.37793e-08 -9.67133e-06)
(-1.14102e-09 1.37805e-08 -9.67134e-06)
(-4.588e-09 1.37695e-08 -9.67055e-06)
(-3.25611e-08 1.36144e-08 -9.66874e-06)
(-2.21381e-07 1.27931e-08 -9.74534e-06)
(-1.52732e-06 1.07465e-08 -1.0359e-05)
(-1.32658e-05 1.11511e-08 -6.19993e-06)
(1.32658e-05 -1.11516e-08 -6.19993e-06)
(1.52732e-06 -1.07463e-08 -1.0359e-05)
(2.21381e-07 -1.27935e-08 -9.74534e-06)
(3.25611e-08 -1.36148e-08 -9.66874e-06)
(4.58793e-09 -1.37698e-08 -9.67055e-06)
(1.14094e-09 -1.37809e-08 -9.67134e-06)
(6.28709e-10 -1.37797e-08 -9.67133e-06)
(4.31074e-10 -1.37802e-08 -9.6713e-06)
(2.97349e-10 -1.37811e-08 -9.67128e-06)
(2.00364e-10 -1.37818e-08 -9.67127e-06)
(1.31827e-10 -1.37822e-08 -9.67126e-06)
(8.45093e-11 -1.37824e-08 -9.67125e-06)
(5.16765e-11 -1.37825e-08 -9.67125e-06)
(2.78288e-11 -1.37826e-08 -9.67124e-06)
(8.77522e-12 -1.37826e-08 -9.67124e-06)
(-8.78217e-12 -1.37826e-08 -9.67124e-06)
(-2.78354e-11 -1.37826e-08 -9.67124e-06)
(-5.16826e-11 -1.37825e-08 -9.67125e-06)
(-8.45159e-11 -1.37824e-08 -9.67125e-06)
(-1.31836e-10 -1.37821e-08 -9.67126e-06)
(-2.00376e-10 -1.37817e-08 -9.67127e-06)
(-2.97368e-10 -1.37811e-08 -9.67128e-06)
(-4.31105e-10 -1.37802e-08 -9.6713e-06)
(-6.28761e-10 -1.37797e-08 -9.67133e-06)
(-1.14102e-09 -1.37809e-08 -9.67134e-06)
(-4.58801e-09 -1.37698e-08 -9.67055e-06)
(-3.25611e-08 -1.36148e-08 -9.66874e-06)
(-2.21381e-07 -1.27935e-08 -9.74534e-06)
(-1.52732e-06 -1.07462e-08 -1.0359e-05)
(-1.32658e-05 -1.11513e-08 -6.19993e-06)
(1.32623e-05 -3.59078e-08 -6.20103e-06)
(1.5265e-06 -3.46294e-08 -1.0359e-05)
(2.20914e-07 -4.11649e-08 -9.74552e-06)
(3.24112e-08 -4.37503e-08 -9.66895e-06)
(4.56217e-09 -4.42282e-08 -9.67076e-06)
(1.14029e-09 -4.42596e-08 -9.67155e-06)
(6.30027e-10 -4.42554e-08 -9.67154e-06)
(4.31866e-10 -4.42568e-08 -9.67151e-06)
(2.97836e-10 -4.42595e-08 -9.67149e-06)
(2.00703e-10 -4.42614e-08 -9.67147e-06)
(1.32066e-10 -4.42627e-08 -9.67146e-06)
(8.46698e-11 -4.42634e-08 -9.67146e-06)
(5.1777e-11 -4.42638e-08 -9.67145e-06)
(2.78833e-11 -4.42641e-08 -9.67145e-06)
(8.79217e-12 -4.42642e-08 -9.67145e-06)
(-8.79977e-12 -4.42642e-08 -9.67145e-06)
(-2.78905e-11 -4.4264e-08 -9.67145e-06)
(-5.17837e-11 -4.42638e-08 -9.67145e-06)
(-8.46769e-11 -4.42634e-08 -9.67146e-06)
(-1.32074e-10 -4.42627e-08 -9.67146e-06)
(-2.00715e-10 -4.42614e-08 -9.67147e-06)
(-2.97855e-10 -4.42594e-08 -9.67149e-06)
(-4.31899e-10 -4.42568e-08 -9.67151e-06)
(-6.30082e-10 -4.42554e-08 -9.67154e-06)
(-1.14038e-09 -4.42596e-08 -9.67155e-06)
(-4.56226e-09 -4.42282e-08 -9.67076e-06)
(-3.24113e-08 -4.37503e-08 -9.66895e-06)
(-2.20914e-07 -4.11649e-08 -9.74552e-06)
(-1.5265e-06 -3.46293e-08 -1.0359e-05)
(-1.32623e-05 -3.59076e-08 -6.20103e-06)
(1.32543e-05 -6.85664e-08 -6.20349e-06)
(1.52464e-06 -6.62329e-08 -1.03589e-05)
(2.19906e-07 -7.85048e-08 -9.74591e-06)
(3.2097e-08 -8.32297e-08 -9.66942e-06)
(4.5095e-09 -8.40685e-08 -9.67123e-06)
(1.13924e-09 -8.41145e-08 -9.67202e-06)
(6.32778e-10 -8.41047e-08 -9.67201e-06)
(4.3347e-10 -8.41068e-08 -9.67198e-06)
(2.98811e-10 -8.41114e-08 -9.67196e-06)
(2.01383e-10 -8.41148e-08 -9.67194e-06)
(1.32544e-10 -8.41169e-08 -9.67193e-06)
(8.49921e-11 -8.41181e-08 -9.67192e-06)
(5.19789e-11 -8.41188e-08 -9.67192e-06)
(2.79926e-11 -8.41192e-08 -9.67192e-06)
(8.82634e-12 -8.41194e-08 -9.67192e-06)
(-8.83485e-12 -8.41194e-08 -9.67192e-06)
(-2.80006e-11 -8.41192e-08 -9.67192e-06)
(-5.19863e-11 -8.41188e-08 -9.67192e-06)
(-8.49997e-11 -8.41181e-08 -9.67192e-06)
(-1.32554e-10 -8.41168e-08 -9.67193e-06)
(-2.01396e-10 -8.41147e-08 -9.67194e-06)
(-2.98832e-10 -8.41114e-08 -9.67196e-06)
(-4.33505e-10 -8.41068e-08 -9.67198e-06)
(-6.32836e-10 -8.41047e-08 -9.67201e-06)
(-1.13933e-09 -8.41145e-08 -9.67202e-06)
(-4.5096e-09 -8.40685e-08 -9.67123e-06)
(-3.2097e-08 -8.32298e-08 -9.66942e-06)
(-2.19906e-07 -7.85048e-08 -9.74591e-06)
(-1.52464e-06 -6.62329e-08 -1.03589e-05)
(-1.32543e-05 -6.85662e-08 -6.20349e-06)
(1.32396e-05 -1.16311e-07 -6.20793e-06)
(1.52124e-06 -1.12675e-07 -1.03588e-05)
(2.18205e-07 -1.32977e-07 -9.74662e-06)
(3.15899e-08 -1.40501e-07 -9.67024e-06)
(4.42767e-09 -1.41762e-07 -9.67205e-06)
(1.13832e-09 -1.41811e-07 -9.67284e-06)
(6.37194e-10 -1.41792e-07 -9.67283e-06)
(4.3592e-10 -1.41794e-07 -9.6728e-06)
(3.00279e-10 -1.41801e-07 -9.67278e-06)
(2.02407e-10 -1.41806e-07 -9.67276e-06)
(1.33266e-10 -1.41809e-07 -9.67275e-06)
(8.54773e-11 -1.4181e-07 -9.67275e-06)
(5.22825e-11 -1.41811e-07 -9.67274e-06)
(2.8157e-11 -1.41812e-07 -9.67274e-06)
(8.8777e-12 -1.41812e-07 -9.67274e-06)
(-8.88753e-12 -1.41812e-07 -9.67274e-06)
(-2.81662e-11 -1.41812e-07 -9.67274e-06)
(-5.22908e-11 -1.41811e-07 -9.67274e-06)
(-8.54855e-11 -1.4181e-07 -9.67275e-06)
(-1.33276e-10 -1.41809e-07 -9.67275e-06)
(-2.02421e-10 -1.41806e-07 -9.67276e-06)
(-3.003e-10 -1.41801e-07 -9.67278e-06)
(-4.35956e-10 -1.41794e-07 -9.6728e-06)
(-6.37255e-10 -1.41792e-07 -9.67283e-06)
(-1.13841e-09 -1.41811e-07 -9.67284e-06)
(-4.42777e-09 -1.41762e-07 -9.67205e-06)
(-3.15899e-08 -1.40501e-07 -9.67024e-06)
(-2.18205e-07 -1.32977e-07 -9.74662e-06)
(-1.52124e-06 -1.12675e-07 -1.03588e-05)
(-1.32396e-05 -1.16311e-07 -6.20793e-06)
(1.32141e-05 -1.89629e-07 -6.21543e-06)
(1.5154e-06 -1.84549e-07 -1.03585e-05)
(2.15577e-07 -2.16535e-07 -9.74771e-06)
(3.08483e-08 -2.27846e-07 -9.67153e-06)
(4.3135e-09 -2.29609e-07 -9.67335e-06)
(1.1385e-09 -2.29643e-07 -9.67414e-06)
(6.43652e-10 -2.29607e-07 -9.67413e-06)
(4.39255e-10 -2.29609e-07 -9.6741e-06)
(3.02236e-10 -2.29618e-07 -9.67407e-06)
(2.03776e-10 -2.29625e-07 -9.67406e-06)
(1.34232e-10 -2.29629e-07 -9.67405e-06)
(8.61261e-11 -2.29632e-07 -9.67404e-06)
(5.26879e-11 -2.29633e-07 -9.67404e-06)
(2.83762e-11 -2.29634e-07 -9.67404e-06)
(8.94617e-12 -2.29634e-07 -9.67404e-06)
(-8.95779e-12 -2.29634e-07 -9.67404e-06)
(-2.8387e-11 -2.29634e-07 -9.67404e-06)
(-5.26974e-11 -2.29633e-07 -9.67404e-06)
(-8.61351e-11 -2.29632e-07 -9.67404e-06)
(-1.34242e-10 -2.29629e-07 -9.67405e-06)
(-2.03791e-10 -2.29625e-07 -9.67406e-06)
(-3.02258e-10 -2.29618e-07 -9.67407e-06)
(-4.39293e-10 -2.29609e-07 -9.6741e-06)
(-6.43715e-10 -2.29607e-07 -9.67413e-06)
(-1.1386e-09 -2.29643e-07 -9.67414e-06)
(-4.31361e-09 -2.29609e-07 -9.67335e-06)
(-3.08483e-08 -2.27846e-07 -9.67154e-06)
(-2.15577e-07 -2.16535e-07 -9.74771e-06)
(-1.5154e-06 -1.84549e-07 -1.03585e-05)
(-1.32141e-05 -1.89629e-07 -6.21543e-06)
(1.31703e-05 -3.04592e-07 -6.22767e-06)
(1.50565e-06 -2.98504e-07 -1.03576e-05)
(2.11709e-07 -3.47585e-07 -9.74917e-06)
(2.98164e-08 -3.64044e-07 -9.67333e-06)
(4.16307e-09 -3.66406e-07 -9.67515e-06)
(1.14143e-09 -3.66393e-07 -9.67593e-06)
(6.52674e-10 -3.66331e-07 -9.67592e-06)
(4.43497e-10 -3.66333e-07 -9.67588e-06)
(3.04664e-10 -3.66345e-07 -9.67586e-06)
(2.05488e-10 -3.66354e-07 -9.67585e-06)
(1.35441e-10 -3.66359e-07 -9.67584e-06)
(8.69371e-11 -3.66362e-07 -9.67583e-06)
(5.31937e-11 -3.66364e-07 -9.67583e-06)
(2.86495e-11 -3.66365e-07 -9.67582e-06)
(9.03144e-12 -3.66365e-07 -9.67582e-06)
(-9.04541e-12 -3.66365e-07 -9.67582e-06)
(-2.86623e-11 -3.66365e-07 -9.67582e-06)
(-5.32048e-11 -3.66364e-07 -9.67583e-06)
(-8.69472e-11 -3.66362e-07 -9.67583e-06)
(-1.35452e-10 -3.66359e-07 -9.67584e-06)
(-2.05502e-10 -3.66353e-07 -9.67585e-06)
(-3.04687e-10 -3.66345e-07 -9.67586e-06)
(-4.43536e-10 -3.66333e-07 -9.67588e-06)
(-6.52741e-10 -3.66331e-07 -9.67592e-06)
(-1.14153e-09 -3.66393e-07 -9.67593e-06)
(-4.16319e-09 -3.66406e-07 -9.67515e-06)
(-2.98165e-08 -3.64044e-07 -9.67333e-06)
(-2.11708e-07 -3.47585e-07 -9.74917e-06)
(-1.50565e-06 -2.98504e-07 -1.03576e-05)
(-1.31703e-05 -3.04592e-07 -6.22767e-06)
(1.30954e-05 -4.86347e-07 -6.24733e-06)
(1.48989e-06 -4.81334e-07 -1.03552e-05)
(2.06211e-07 -5.55076e-07 -9.75078e-06)
(2.84216e-08 -5.78461e-07 -9.67547e-06)
(3.97238e-09 -5.81524e-07 -9.67728e-06)
(1.14981e-09 -5.81416e-07 -9.67806e-06)
(6.64903e-10 -5.81313e-07 -9.67805e-06)
(4.48615e-10 -5.81314e-07 -9.67801e-06)
(3.07523e-10 -5.81331e-07 -9.67799e-06)
(2.07528e-10 -5.81342e-07 -9.67797e-06)
(1.36888e-10 -5.81348e-07 -9.67796e-06)
(8.79054e-11 -5.81352e-07 -9.67796e-06)
(5.37964e-11 -5.81355e-07 -9.67795e-06)
(2.89747e-11 -5.81356e-07 -9.67795e-06)
(9.13282e-12 -5.81357e-07 -9.67795e-06)
(-9.1497e-12 -5.81357e-07 -9.67795e-06)
(-2.89901e-11 -5.81356e-07 -9.67795e-06)
(-5.38093e-11 -5.81355e-07 -9.67795e-06)
(-8.79165e-11 -5.81352e-07 -9.67796e-06)
(-1.369e-10 -5.81348e-07 -9.67796e-06)
(-2.07543e-10 -5.81342e-07 -9.67797e-06)
(-3.07547e-10 -5.81331e-07 -9.67799e-06)
(-4.48655e-10 -5.81314e-07 -9.67801e-06)
(-6.64972e-10 -5.81313e-07 -9.67805e-06)
(-1.14991e-09 -5.81416e-07 -9.67806e-06)
(-3.9725e-09 -5.81524e-07 -9.67728e-06)
(-2.84217e-08 -5.78461e-07 -9.67547e-06)
(-2.06211e-07 -5.55076e-07 -9.75078e-06)
(-1.48989e-06 -4.81334e-07 -1.03552e-05)
(-1.30954e-05 -4.86347e-07 -6.24733e-06)
(1.29699e-05 -7.74551e-07 -6.27926e-06)
(1.46544e-06 -7.76433e-07 -1.03507e-05)
(1.98632e-07 -8.84804e-07 -9.75287e-06)
(2.6569e-08 -9.17341e-07 -9.67839e-06)
(3.73946e-09 -9.21206e-07 -9.6802e-06)
(1.16779e-09 -9.20928e-07 -9.68096e-06)
(6.80939e-10 -9.20765e-07 -9.68095e-06)
(4.54477e-10 -9.20767e-07 -9.68092e-06)
(3.10746e-10 -9.20789e-07 -9.68089e-06)
(2.09875e-10 -9.20803e-07 -9.68088e-06)
(1.38558e-10 -9.20812e-07 -9.68087e-06)
(8.90203e-11 -9.20817e-07 -9.68086e-06)
(5.44889e-11 -9.2082e-07 -9.68086e-06)
(2.93479e-11 -9.20822e-07 -9.68085e-06)
(9.24904e-12 -9.20823e-07 -9.68085e-06)
(-9.26938e-12 -9.20823e-07 -9.68085e-06)
(-2.93662e-11 -9.20822e-07 -9.68085e-06)
(-5.4504e-11 -9.2082e-07 -9.68086e-06)
(-8.90326e-11 -9.20817e-07 -9.68086e-06)
(-1.3857e-10 -9.20812e-07 -9.68087e-06)
(-2.0989e-10 -9.20803e-07 -9.68088e-06)
(-3.10769e-10 -9.20789e-07 -9.68089e-06)
(-4.54519e-10 -9.20767e-07 -9.68092e-06)
(-6.81011e-10 -9.20765e-07 -9.68095e-06)
(-1.1679e-09 -9.20928e-07 -9.68096e-06)
(-3.73959e-09 -9.21206e-07 -9.6802e-06)
(-2.6569e-08 -9.17341e-07 -9.67839e-06)
(-1.98632e-07 -8.84804e-07 -9.75287e-06)
(-1.46544e-06 -7.76433e-07 -1.03507e-05)
(-1.29699e-05 -7.74552e-07 -6.27926e-06)
(1.27674e-05 -1.23175e-06 -6.33518e-06)
(1.42976e-06 -1.25348e-06 -1.03482e-05)
(1.88457e-07 -1.40879e-06 -9.76089e-06)
(2.41439e-08 -1.45322e-06 -9.68778e-06)
(3.46974e-09 -1.45798e-06 -9.68957e-06)
(1.20077e-09 -1.45741e-06 -9.69032e-06)
(7.00935e-10 -1.45716e-06 -9.69031e-06)
(4.60801e-10 -1.45717e-06 -9.69027e-06)
(3.14247e-10 -1.4572e-06 -9.69025e-06)
(2.125e-10 -1.45722e-06 -9.69023e-06)
(1.40431e-10 -1.45723e-06 -9.69022e-06)
(9.02673e-11 -1.45723e-06 -9.69021e-06)
(5.52617e-11 -1.45724e-06 -9.69021e-06)
(2.97638e-11 -1.45724e-06 -9.69021e-06)
(9.37851e-12 -1.45724e-06 -9.69021e-06)
(-9.4027e-12 -1.45724e-06 -9.69021e-06)
(-2.97855e-11 -1.45724e-06 -9.69021e-06)
(-5.52792e-11 -1.45724e-06 -9.69021e-06)
(-9.02809e-11 -1.45723e-06 -9.69021e-06)
(-1.40443e-10 -1.45723e-06 -9.69022e-06)
(-2.12514e-10 -1.45722e-06 -9.69023e-06)
(-3.14271e-10 -1.4572e-06 -9.69025e-06)
(-4.60844e-10 -1.45717e-06 -9.69027e-06)
(-7.01009e-10 -1.45716e-06 -9.69031e-06)
(-1.20089e-09 -1.45741e-06 -9.69032e-06)
(-3.46988e-09 -1.45798e-06 -9.68957e-06)
(-2.4144e-08 -1.45322e-06 -9.68778e-06)
(-1.88457e-07 -1.40879e-06 -9.76089e-06)
(-1.42976e-06 -1.25348e-06 -1.03482e-05)
(-1.27674e-05 -1.23175e-06 -6.33518e-06)
(1.24613e-05 -1.9561e-06 -6.44616e-06)
(1.38181e-06 -2.02179e-06 -1.03705e-05)
(1.75155e-07 -2.23841e-06 -9.79969e-06)
(2.10608e-08 -2.29819e-06 -9.72895e-06)
(3.18636e-09 -2.30389e-06 -9.73074e-06)
(1.25338e-09 -2.30286e-06 -9.73145e-06)
(7.23817e-10 -2.30249e-06 -9.73143e-06)
(4.67174e-10 -2.3025e-06 -9.73139e-06)
(3.17995e-10 -2.30255e-06 -9.73137e-06)
(2.15403e-10 -2.30257e-06 -9.73135e-06)
(1.42501e-10 -2.30259e-06 -9.73134e-06)
(9.16386e-11 -2.3026e-06 -9.73133e-06)
(5.61091e-11 -2.3026e-06 -9.73133e-06)
(3.02191e-11 -2.3026e-06 -9.73132e-06)
(9.52016e-12 -2.30261e-06 -9.73132e-06)