/*--------------------------------*- C++ -*----------------------------------*\
| =========                 |                                                 |
| \\      /  F ield         | OpenFOAM: The Open Source CFD Toolbox           |
|  \\    /   O peration     | Version:  2106                                  |
|   \\  /    A nd           | Website:  www.openfoam.com                      |
|    \\/     M anipulation  |                                                 |
\*---------------------------------------------------------------------------*/
FoamFile
{
    version     2.0;
    format      ascii;
    arch        "LSB;label=32;scalar=64";
    class       volSymmTensorField;
    location    "89";
    object      sigma;
}
// * * * * * * * * * * * * * * * * * * * * * * * * * * * * * * * * * * * * * //

dimensions      [1 -1 -2 0 0 0 0];

internalField   nonuniform List<symmTensor> 
9000
(
(1.0876e+08 -192999 3.07356e+07 6.93733e+07 3.94104e+07 1.48238e+08)
(1.60923e+08 336618 5.98439e+06 7.19905e+07 4.16755e+07 1.28176e+08)
(1.79018e+08 214260 1.61776e+06 7.42811e+07 4.42522e+07 1.43407e+08)
(1.81256e+08 32799 274068 7.44488e+07 4.48221e+07 1.45988e+08)
(1.81527e+08 -511.403 26207.9 7.449e+07 4.4846e+07 1.46101e+08)
(1.81561e+08 -942.981 4944.4 7.45014e+07 4.48324e+07 1.46069e+08)
(1.81565e+08 -82.9842 5297.25 7.45028e+07 4.483e+07 1.46065e+08)
(1.81566e+08 44.8673 4426.16 7.45029e+07 4.48306e+07 1.46069e+08)
(1.81567e+08 26.9502 3130.61 7.4503e+07 4.48313e+07 1.46072e+08)
(1.81568e+08 13.6511 2107.7 7.45031e+07 4.48316e+07 1.46074e+08)
(1.81568e+08 8.09401 1387.37 7.45031e+07 4.48318e+07 1.46075e+08)
(1.81568e+08 5.00035 889.732 7.45032e+07 4.4832e+07 1.46076e+08)
(1.81569e+08 2.95641 543.355 7.45032e+07 4.48321e+07 1.46077e+08)
(1.81569e+08 1.54797 292.04 7.45032e+07 4.48321e+07 1.46077e+08)
(1.81569e+08 0.479855 92.0881 7.45032e+07 4.48321e+07 1.46077e+08)
(1.81569e+08 -0.484116 -91.7506 7.45032e+07 4.48321e+07 1.46077e+08)
(1.81569e+08 -1.55157 -291.76 7.45032e+07 4.48321e+07 1.46077e+08)
(1.81569e+08 -2.95872 -543.185 7.45032e+07 4.48321e+07 1.46077e+08)
(1.81568e+08 -5.00096 -889.712 7.45032e+07 4.4832e+07 1.46076e+08)
(1.81568e+08 -8.09275 -1387.53 7.45031e+07 4.48318e+07 1.46075e+08)
(1.81568e+08 -13.6481 -2108.02 7.45031e+07 4.48316e+07 1.46074e+08)
(1.81567e+08 -26.9461 -3131.09 7.4503e+07 4.48313e+07 1.46072e+08)
(1.81566e+08 -44.8635 -4426.78 7.45029e+07 4.48306e+07 1.46069e+08)
(1.81565e+08 82.9844 -5297.92 7.45028e+07 4.483e+07 1.46065e+08)
(1.81561e+08 942.972 -4944.77 7.45014e+07 4.48324e+07 1.46069e+08)
(1.81527e+08 511.384 -26207.3 7.449e+07 4.4846e+07 1.46101e+08)
(1.81256e+08 -32799.1 -274066 7.44488e+07 4.48221e+07 1.45988e+08)
(1.79018e+08 -214260 -1.61775e+06 7.42811e+07 4.42522e+07 1.43407e+08)
(1.60923e+08 -336618 -5.98438e+06 7.19905e+07 4.16755e+07 1.28176e+08)
(1.0876e+08 192999 -3.07356e+07 6.93733e+07 3.94104e+07 1.48238e+08)
(9.33522e+07 -36169.3 2.96573e+07 7.64641e+07 4.34762e+07 5.75115e+07)
(1.31399e+08 427291 5.124e+06 7.60199e+07 4.57102e+07 3.0865e+07)
(1.47641e+08 274920 962301 7.91131e+07 4.85645e+07 4.01934e+07)
(1.49298e+08 45359.9 130029 7.89891e+07 4.92955e+07 4.12837e+07)
(1.49469e+08 -1675.88 21050.7 7.90211e+07 4.93263e+07 4.13152e+07)
(1.49496e+08 -1810.9 8657.89 7.90497e+07 4.93042e+07 4.13153e+07)
(1.49501e+08 -214.933 5741.13 7.90543e+07 4.92999e+07 4.1317e+07)
(1.49502e+08 35.4305 4078.17 7.90538e+07 4.93005e+07 4.13182e+07)
(1.49502e+08 14.3563 2844.97 7.90532e+07 4.93011e+07 4.13191e+07)
(1.49502e+08 0.404756 1928.24 7.90529e+07 4.93015e+07 4.13197e+07)
(1.49502e+08 -1.43669 1273.94 7.90527e+07 4.93017e+07 4.13201e+07)
(1.49502e+08 -1.13085 818.713 7.90526e+07 4.93018e+07 4.13203e+07)
(1.49502e+08 -0.763664 500.952 7.90526e+07 4.93019e+07 4.13205e+07)
(1.49502e+08 -0.441282 269.657 7.90525e+07 4.93019e+07 4.13206e+07)
(1.49502e+08 -0.148693 85.0775 7.90525e+07 4.9302e+07 4.13206e+07)
(1.49502e+08 0.131138 -84.8321 7.90525e+07 4.9302e+07 4.13206e+07)
(1.49502e+08 0.426764 -269.456 7.90525e+07 4.93019e+07 4.13206e+07)
(1.49502e+08 0.75459 -500.834 7.90526e+07 4.93019e+07 4.13205e+07)
(1.49502e+08 1.12844 -818.706 7.90526e+07 4.93018e+07 4.13203e+07)
(1.49502e+08 1.44126 -1274.05 7.90527e+07 4.93017e+07 4.13201e+07)
(1.49502e+08 -0.393729 -1928.48 7.90529e+07 4.93015e+07 4.13197e+07)
(1.49502e+08 -14.3407 -2845.32 7.90532e+07 4.93011e+07 4.13191e+07)
(1.49502e+08 -35.4148 -4078.61 7.90538e+07 4.93005e+07 4.13182e+07)
(1.49501e+08 214.943 -5741.63 7.90543e+07 4.92999e+07 4.1317e+07)
(1.49496e+08 1810.9 -8658.36 7.90497e+07 4.93042e+07 4.13153e+07)
(1.49469e+08 1675.86 -21051 7.90211e+07 4.93263e+07 4.13152e+07)
(1.49298e+08 -45360 -130029 7.89891e+07 4.92955e+07 4.12837e+07)
(1.47641e+08 -274920 -962298 7.91131e+07 4.85645e+07 4.01934e+07)
(1.31399e+08 -427291 -5.124e+06 7.60199e+07 4.57102e+07 3.0865e+07)
(9.33522e+07 36168.9 -2.96573e+07 7.64641e+07 4.34762e+07 5.75115e+07)
(9.78177e+07 729317 2.97917e+07 1.09364e+08 3.69085e+07 4.88433e+07)
(1.40338e+08 549749 5.02539e+06 1.12453e+08 3.85912e+07 2.26599e+07)
(1.574e+08 329956 851079 1.18137e+08 4.12274e+07 3.16708e+07)
(1.59134e+08 61828.3 91552.8 1.18369e+08 4.19189e+07 3.2591e+07)
(1.59298e+08 141.521 18124.1 1.18419e+08 4.19562e+07 3.26116e+07)
(1.59321e+08 -2061.94 9693.54 1.18447e+08 4.19363e+07 3.2617e+07)
(1.59325e+08 -306.197 5889.66 1.18452e+08 4.19319e+07 3.26199e+07)
(1.59326e+08 42.6804 3926.87 1.18452e+08 4.19325e+07 3.2621e+07)
(1.59326e+08 27.9115 2710.66 1.18452e+08 4.19332e+07 3.26217e+07)
(1.59327e+08 8.291 1839.95 1.18452e+08 4.19335e+07 3.26222e+07)
(1.59327e+08 3.04748 1217.22 1.18452e+08 4.19337e+07 3.26225e+07)
(1.59327e+08 1.50905 782.922 1.18452e+08 4.19339e+07 3.26227e+07)
(1.59327e+08 0.750547 479.457 1.18452e+08 4.1934e+07 3.26228e+07)
(1.59327e+08 0.336566 258.271 1.18452e+08 4.1934e+07 3.26229e+07)
(1.59327e+08 0.0905795 81.504 1.18452e+08 4.1934e+07 3.2623e+07)
(1.59327e+08 -0.108747 -81.3138 1.18452e+08 4.1934e+07 3.2623e+07)
(1.59327e+08 -0.351346 -258.116 1.18452e+08 4.1934e+07 3.26229e+07)
(1.59327e+08 -0.759612 -479.369 1.18452e+08 4.1934e+07 3.26228e+07)
(1.59327e+08 -1.5118 -782.922 1.18452e+08 4.19339e+07 3.26227e+07)
(1.59327e+08 -3.0441 -1217.32 1.18452e+08 4.19337e+07 3.26225e+07)
(1.59327e+08 -8.2823 -1840.15 1.18452e+08 4.19335e+07 3.26222e+07)
(1.59326e+08 -27.9006 -2710.94 1.18452e+08 4.19332e+07 3.26217e+07)
(1.59326e+08 -42.6739 -3927.23 1.18452e+08 4.19325e+07 3.2621e+07)
(1.59325e+08 306.197 -5890.07 1.18452e+08 4.19319e+07 3.26199e+07)
(1.59321e+08 2061.96 -9694.04 1.18447e+08 4.19363e+07 3.2617e+07)
(1.59298e+08 -141.438 -18124.7 1.18419e+08 4.19562e+07 3.26116e+07)
(1.59134e+08 -61828.2 -91552.8 1.18369e+08 4.19189e+07 3.2591e+07)
(1.574e+08 -329956 -851076 1.18137e+08 4.12274e+07 3.16708e+07)
(1.40338e+08 -549749 -5.02539e+06 1.12453e+08 3.85912e+07 2.26599e+07)
(9.78177e+07 -729317 -2.97917e+07 1.09364e+08 3.69085e+07 4.88433e+07)
(1.03358e+08 1.14805e+06 3.08095e+07 1.32845e+08 2.60663e+07 5.74535e+07)
(1.50803e+08 553556 5.19646e+06 1.3794e+08 2.69102e+07 3.13289e+07)
(1.6909e+08 314075 926921 1.45334e+08 2.903e+07 4.11614e+07)
(1.70995e+08 64762.6 97970.1 1.45867e+08 2.95871e+07 4.22089e+07)
(1.71179e+08 2031.63 17199.1 1.45926e+08 2.96245e+07 4.22346e+07)
(1.71201e+08 -1836.85 9580.6 1.4595e+08 2.96102e+07 4.22384e+07)
(1.71204e+08 -342.21 5857.22 1.45955e+08 2.96067e+07 4.22409e+07)
(1.71206e+08 30.2227 3848.16 1.45955e+08 2.96071e+07 4.2242e+07)
(1.71206e+08 29.1109 2639.79 1.45955e+08 2.96076e+07 4.22428e+07)
(1.71206e+08 10.3137 1790.13 1.45955e+08 2.96079e+07 4.22433e+07)
(1.71206e+08 4.1858 1184.28 1.45955e+08 2.96081e+07 4.22436e+07)
(1.71207e+08 2.10615 761.852 1.45955e+08 2.96082e+07 4.22438e+07)
(1.71207e+08 1.0656 466.689 1.45955e+08 2.96082e+07 4.2244e+07)
(1.71207e+08 0.489539 251.471 1.45955e+08 2.96083e+07 4.2244e+07)
(1.71207e+08 0.136069 79.3628 1.45955e+08 2.96083e+07 4.22441e+07)
(1.71207e+08 -0.154728 -79.213 1.45955e+08 2.96083e+07 4.22441e+07)
(1.71207e+08 -0.504668 -251.35 1.45955e+08 2.96083e+07 4.2244e+07)
(1.71207e+08 -1.07491 -466.623 1.45955e+08 2.96082e+07 4.2244e+07)
(1.71207e+08 -2.10927 -761.859 1.45955e+08 2.96082e+07 4.22438e+07)
(1.71206e+08 -4.18315 -1184.37 1.45955e+08 2.96081e+07 4.22436e+07)
(1.71206e+08 -10.3063 -1790.3 1.45955e+08 2.96079e+07 4.22433e+07)
(1.71206e+08 -29.1025 -2640.04 1.45955e+08 2.96076e+07 4.22428e+07)
(1.71206e+08 -30.2205 -3848.47 1.45955e+08 2.96071e+07 4.2242e+07)
(1.71204e+08 342.207 -5857.6 1.45955e+08 2.96067e+07 4.22409e+07)
(1.71201e+08 1836.88 -9581.09 1.4595e+08 2.96102e+07 4.22384e+07)
(1.71179e+08 -2031.5 -17199.7 1.45926e+08 2.96245e+07 4.22346e+07)
(1.70995e+08 -64762.4 -97970.2 1.45867e+08 2.95871e+07 4.22089e+07)
(1.6909e+08 -314075 -926919 1.45334e+08 2.903e+07 4.11614e+07)
(1.50803e+08 -553556 -5.19645e+06 1.3794e+08 2.69102e+07 3.13289e+07)
(1.03358e+08 -1.14805e+06 -3.08095e+07 1.32845e+08 2.60663e+07 5.74535e+07)
(1.06903e+08 1.13025e+06 3.20799e+07 1.47424e+08 1.68008e+07 6.49663e+07)
(1.57534e+08 484348 5.44823e+06 1.53812e+08 1.70367e+07 3.8285e+07)
(1.7691e+08 261407 1.03526e+06 1.62266e+08 1.8636e+07 4.88827e+07)
(1.7897e+08 57760.8 117389 1.63007e+08 1.90577e+07 5.0063e+07)
(1.79177e+08 3134.64 17631.4 1.63073e+08 1.90915e+07 5.00953e+07)
(1.79201e+08 -1400.57 9133.69 1.63093e+08 1.90825e+07 5.00973e+07)
(1.79205e+08 -325.328 5733.54 1.63097e+08 1.90799e+07 5.00995e+07)
(1.79206e+08 11.2104 3788.18 1.63097e+08 1.90801e+07 5.01006e+07)
(1.79206e+08 22.2875 2591.74 1.63097e+08 1.90805e+07 5.01014e+07)
(1.79207e+08 7.95388 1754.61 1.63098e+08 1.90808e+07 5.01019e+07)
(1.79207e+08 2.80895 1160.11 1.63098e+08 1.90809e+07 5.01023e+07)
(1.79207e+08 1.18284 746.188 1.63098e+08 1.9081e+07 5.01025e+07)
(1.79207e+08 0.489821 457.118 1.63098e+08 1.9081e+07 5.01026e+07)
(1.79207e+08 0.178567 246.347 1.63098e+08 1.9081e+07 5.01027e+07)
(1.79207e+08 0.0378057 77.7438 1.63098e+08 1.90811e+07 5.01027e+07)
(1.79207e+08 -0.0569165 -77.6305 1.63098e+08 1.90811e+07 5.01027e+07)
(1.79207e+08 -0.194137 -246.256 1.63098e+08 1.9081e+07 5.01027e+07)
(1.79207e+08 -0.49953 -457.071 1.63098e+08 1.9081e+07 5.01026e+07)
(1.79207e+08 -1.18626 -746.2 1.63098e+08 1.9081e+07 5.01025e+07)
(1.79207e+08 -2.8065 -1160.19 1.63098e+08 1.90809e+07 5.01023e+07)
(1.79207e+08 -7.94677 -1754.76 1.63098e+08 1.90808e+07 5.01019e+07)
(1.79206e+08 -22.2796 -2591.95 1.63097e+08 1.90805e+07 5.01014e+07)
(1.79206e+08 -11.2085 -3788.46 1.63097e+08 1.90801e+07 5.01006e+07)
(1.79205e+08 325.326 -5733.9 1.63097e+08 1.90799e+07 5.00995e+07)
(1.79201e+08 1400.6 -9134.15 1.63093e+08 1.90825e+07 5.00973e+07)
(1.79177e+08 -3134.51 -17631.9 1.63073e+08 1.90915e+07 5.00953e+07)
(1.7897e+08 -57760.7 -117389 1.63007e+08 1.90577e+07 5.0063e+07)
(1.7691e+08 -261407 -1.03526e+06 1.62266e+08 1.8636e+07 4.88827e+07)
(1.57534e+08 -484347 -5.44822e+06 1.53812e+08 1.70367e+07 3.8285e+07)
(1.06903e+08 -1.13025e+06 -3.20799e+07 1.47424e+08 1.68008e+07 6.49663e+07)
(1.08848e+08 890556 3.31944e+07 1.56252e+08 1.0477e+07 6.92832e+07)
(1.61283e+08 384782 5.70066e+06 1.63485e+08 1.04095e+07 4.18969e+07)
(1.81492e+08 202573 1.12995e+06 1.72641e+08 1.15775e+07 5.30378e+07)
(1.83674e+08 47067.6 137075 1.73523e+08 1.18907e+07 5.43089e+07)
(1.839e+08 3470.2 18764.8 1.73596e+08 1.19197e+07 5.43466e+07)
(1.83927e+08 -953.274 8697.33 1.73613e+08 1.19145e+07 5.43478e+07)
(1.83931e+08 -277.042 5579.58 1.73616e+08 1.19127e+07 5.43498e+07)
(1.83932e+08 -4.61369 3731.35 1.73617e+08 1.19128e+07 5.43509e+07)
(1.83933e+08 13.587 2552.15 1.73617e+08 1.19131e+07 5.43516e+07)
(1.83933e+08 4.3401 1725.03 1.73617e+08 1.19133e+07 5.43521e+07)
(1.83933e+08 0.778696 1139.64 1.73618e+08 1.19134e+07 5.43525e+07)
(1.83933e+08 -0.104564 732.795 1.73618e+08 1.19135e+07 5.43527e+07)
(1.83934e+08 -0.289916 448.889 1.73618e+08 1.19135e+07 5.43528e+07)
(1.83934e+08 -0.235305 241.926 1.73618e+08 1.19135e+07 5.43529e+07)
(1.83934e+08 -0.0914119 76.344 1.73618e+08 1.19135e+07 5.43529e+07)
(1.83934e+08 0.0730357 -76.2645 1.73618e+08 1.19135e+07 5.43529e+07)
(1.83934e+08 0.22025 -241.864 1.73618e+08 1.19135e+07 5.43529e+07)
(1.83934e+08 0.280411 -448.86 1.73618e+08 1.19135e+07 5.43528e+07)
(1.83933e+08 0.101114 -732.813 1.73618e+08 1.19135e+07 5.43527e+07)
(1.83933e+08 -0.776416 -1139.71 1.73618e+08 1.19134e+07 5.43525e+07)
(1.83933e+08 -4.33329 -1725.16 1.73617e+08 1.19133e+07 5.43521e+07)
(1.83933e+08 -13.5792 -2552.34 1.73617e+08 1.19131e+07 5.43516e+07)
(1.83932e+08 4.61639 -3731.6 1.73617e+08 1.19128e+07 5.43509e+07)
(1.83931e+08 277.041 -5579.92 1.73616e+08 1.19127e+07 5.43498e+07)
(1.83927e+08 953.298 -8697.76 1.73613e+08 1.19145e+07 5.43478e+07)
(1.839e+08 -3470.11 -18765.3 1.73596e+08 1.19197e+07 5.43466e+07)
(1.83674e+08 -47067.5 -137075 1.73523e+08 1.18907e+07 5.43089e+07)
(1.81492e+08 -202573 -1.12995e+06 1.72641e+08 1.15775e+07 5.30378e+07)
(1.61283e+08 -384781 -5.70065e+06 1.63485e+08 1.04095e+07 4.18969e+07)
(1.08848e+08 -890556 -3.31944e+07 1.56252e+08 1.0477e+07 6.92832e+07)
(1.09918e+08 615094 3.40142e+07 1.6165e+08 6.50831e+06 7.15908e+07)
(1.63359e+08 283005 5.91459e+06 1.69399e+08 6.34061e+06 4.36173e+07)
(1.84158e+08 150788 1.20383e+06 1.79059e+08 7.17188e+06 5.51274e+07)
(1.8643e+08 36482.6 153383 1.80041e+08 7.40263e+06 5.64573e+07)
(1.86672e+08 3307.91 20117.6 1.8012e+08 7.4268e+06 5.6499e+07)
(1.86703e+08 -589.638 8373.67 1.80135e+08 7.424e+06 5.65e+07)
(1.86707e+08 -218.149 5430.22 1.80138e+08 7.42282e+06 5.65019e+07)
(1.86708e+08 -14.0412 3676.13 1.80138e+08 7.42291e+06 5.6503e+07)
(1.86708e+08 6.32401 2516.95 1.80139e+08 7.42311e+06 5.65037e+07)
(1.86709e+08 1.24624 1699.02 1.80139e+08 7.42325e+06 5.65042e+07)
(1.86709e+08 -0.872182 1121.5 1.80139e+08 7.42333e+06 5.65045e+07)
(1.86709e+08 -1.12097 720.852 1.80139e+08 7.42338e+06 5.65048e+07)
(1.86709e+08 -0.896945 441.522 1.80139e+08 7.4234e+06 5.65049e+07)
(1.86709e+08 -0.554355 237.959 1.80139e+08 7.42342e+06 5.6505e+07)
(1.86709e+08 -0.18997 75.0866 1.80139e+08 7.42343e+06 5.6505e+07)
(1.86709e+08 0.173888 -75.0378 1.80139e+08 7.42343e+06 5.6505e+07)
(1.86709e+08 0.541132 -237.923 1.80139e+08 7.42342e+06 5.6505e+07)
(1.86709e+08 0.888528 -441.51 1.80139e+08 7.4234e+06 5.65049e+07)
(1.86709e+08 1.11783 -720.876 1.80139e+08 7.42338e+06 5.65048e+07)
(1.86709e+08 0.874091 -1121.57 1.80139e+08 7.42333e+06 5.65045e+07)
(1.86709e+08 -1.24036 -1699.14 1.80139e+08 7.42325e+06 5.65042e+07)
(1.86708e+08 -6.31721 -2517.12 1.80139e+08 7.42311e+06 5.65037e+07)
(1.86708e+08 14.0436 -3676.36 1.80138e+08 7.42291e+06 5.6503e+07)
(1.86707e+08 218.147 -5430.54 1.80138e+08 7.42282e+06 5.65019e+07)
(1.86703e+08 589.65 -8374.09 1.80135e+08 7.424e+06 5.65e+07)
(1.86672e+08 -3307.86 -20118 1.8012e+08 7.4268e+06 5.6499e+07)
(1.8643e+08 -36482.5 -153383 1.80041e+08 7.40263e+06 5.64573e+07)
(1.84158e+08 -150788 -1.20383e+06 1.79059e+08 7.17188e+06 5.51274e+07)
(1.63359e+08 -283005 -5.91458e+06 1.69399e+08 6.34061e+06 4.36173e+07)
(1.09918e+08 -615094 -3.40142e+07 1.6165e+08 6.50832e+06 7.15908e+07)
(1.10548e+08 390887 3.45567e+07 1.65005e+08 4.06367e+06 7.28892e+07)
(1.64565e+08 195385 6.07611e+06 1.73039e+08 3.89476e+06 4.45028e+07)
(1.85764e+08 109211 1.2594e+06 1.83073e+08 4.47157e+06 5.62619e+07)
(1.88101e+08 27479.1 166031 1.84127e+08 4.63966e+06 5.7631e+07)
(1.88355e+08 2900.53 21416.4 1.84212e+08 4.65931e+06 5.76759e+07)
(1.88388e+08 -330.82 8163.98 1.84226e+08 4.65799e+06 5.7677e+07)
(1.88393e+08 -162.187 5301.38 1.84229e+08 4.65724e+06 5.76788e+07)
(1.88394e+08 -17.7548 3624.51 1.8423e+08 4.65731e+06 5.76798e+07)
(1.88394e+08 1.40363 2485.35 1.8423e+08 4.65746e+06 5.76806e+07)
(1.88394e+08 -0.814098 1676.06 1.8423e+08 4.65757e+06 5.76811e+07)
(1.88395e+08 -1.87436 1105.43 1.8423e+08 4.65763e+06 5.76814e+07)
(1.88395e+08 -1.70804 710.221 1.8423e+08 4.65767e+06 5.76816e+07)
(1.88395e+08 -1.23855 434.944 1.8423e+08 4.6577e+06 5.76817e+07)
(1.88395e+08 -0.730398 234.411 1.8423e+08 4.65771e+06 5.76818e+07)
(1.88395e+08 -0.243071 73.9613 1.8423e+08 4.65771e+06 5.76818e+07)
(1.88395e+08 0.230548 -73.9388 1.8423e+08 4.65771e+06 5.76818e+07)
(1.88395e+08 0.720089 -234.396 1.8423e+08 4.65771e+06 5.76818e+07)
(1.88395e+08 1.23196 -434.946 1.8423e+08 4.6577e+06 5.76817e+07)
(1.88395e+08 1.70549 -710.25 1.8423e+08 4.65767e+06 5.76816e+07)
(1.88395e+08 1.87566 -1105.49 1.8423e+08 4.65763e+06 5.76814e+07)
(1.88394e+08 0.818404 -1676.16 1.8423e+08 4.65757e+06 5.76811e+07)
(1.88394e+08 -1.3988 -2485.5 1.8423e+08 4.65746e+06 5.76806e+07)
(1.88394e+08 17.7557 -3624.73 1.8423e+08 4.65731e+06 5.76798e+07)
(1.88393e+08 162.183 -5301.7 1.84229e+08 4.65724e+06 5.76788e+07)
(1.88388e+08 330.82 -8164.39 1.84226e+08 4.65799e+06 5.7677e+07)
(1.88355e+08 -2900.51 -21416.8 1.84212e+08 4.65931e+06 5.76759e+07)
(1.88101e+08 -27479 -166031 1.84127e+08 4.63966e+06 5.7631e+07)
(1.85764e+08 -109211 -1.25939e+06 1.83073e+08 4.47157e+06 5.62619e+07)
(1.64565e+08 -195384 -6.0761e+06 1.73039e+08 3.89476e+06 4.45028e+07)
(1.10548e+08 -390887 -3.45567e+07 1.65005e+08 4.06367e+06 7.28892e+07)
(1.10943e+08 235889 3.4893e+07 1.6711e+08 2.54728e+06 7.36724e+07)
(1.65301e+08 128279 6.18795e+06 1.75286e+08 2.41208e+06 4.50182e+07)
(1.86761e+08 77272 1.30027e+06 1.85597e+08 2.80278e+06 5.69431e+07)
(1.89143e+08 20296.5 175622 1.86705e+08 2.92325e+06 5.83391e+07)
(1.89407e+08 2412.15 22544.4 1.86795e+08 2.93885e+06 5.83866e+07)
(1.89442e+08 -163.043 8039.43 1.86808e+08 2.9384e+06 5.83877e+07)
(1.89446e+08 -115.467 5197.41 1.86811e+08 2.93794e+06 5.83895e+07)
(1.89447e+08 -17.6567 3578.48 1.86811e+08 2.938e+06 5.83905e+07)
(1.89448e+08 -1.40947 2457.44 1.86812e+08 2.93812e+06 5.83912e+07)
(1.89448e+08 -1.92082 1656.06 1.86812e+08 2.93821e+06 5.83917e+07)
(1.89448e+08 -2.30504 1091.42 1.86812e+08 2.93826e+06 5.8392e+07)
(1.89448e+08 -1.92219 700.921 1.86812e+08 2.93829e+06 5.83922e+07)
(1.89448e+08 -1.34996 429.173 1.86812e+08 2.93831e+06 5.83924e+07)
(1.89449e+08 -0.782597 231.293 1.86812e+08 2.93832e+06 5.83924e+07)
(1.89449e+08 -0.256979 72.9725 1.86812e+08 2.93832e+06 5.83925e+07)
(1.89449e+08 0.248707 -72.9717 1.86812e+08 2.93832e+06 5.83925e+07)
(1.89449e+08 0.775801 -231.297 1.86812e+08 2.93832e+06 5.83924e+07)
(1.89448e+08 1.34561 -429.188 1.86812e+08 2.93831e+06 5.83924e+07)
(1.89448e+08 1.92036 -700.955 1.86812e+08 2.93829e+06 5.83922e+07)
(1.89448e+08 2.30557 -1091.48 1.86812e+08 2.93826e+06 5.8392e+07)
(1.89448e+08 1.92313 -1656.15 1.86812e+08 2.93821e+06 5.83917e+07)
(1.89448e+08 1.41165 -2457.58 1.86812e+08 2.93812e+06 5.83912e+07)
(1.89447e+08 17.6551 -3578.69 1.86811e+08 2.938e+06 5.83905e+07)
(1.89446e+08 115.459 -5197.72 1.86811e+08 2.93794e+06 5.83895e+07)
(1.89442e+08 163.034 -8039.86 1.86808e+08 2.9384e+06 5.83877e+07)
(1.89407e+08 -2412.15 -22544.9 1.86795e+08 2.93885e+06 5.83866e+07)
(1.89143e+08 -20296.5 -175622 1.86705e+08 2.92325e+06 5.83391e+07)
(1.86761e+08 -77272 -1.30027e+06 1.85597e+08 2.80278e+06 5.69431e+07)
(1.65301e+08 -128279 -6.18794e+06 1.75286e+08 2.41208e+06 4.50182e+07)
(1.10943e+08 -235889 -3.4893e+07 1.6711e+08 2.54729e+06 7.36724e+07)
(1.11197e+08 138321 3.50935e+07 1.68436e+08 1.59631e+06 7.41619e+07)
(1.65761e+08 81094.3 6.26058e+06 1.76673e+08 1.49935e+06 4.53406e+07)
(1.87388e+08 53431.7 1.32963e+06 1.87182e+08 1.75832e+06 5.73738e+07)
(1.89801e+08 14718.7 182809 1.88331e+08 1.84298e+06 5.87883e+07)
(1.90071e+08 1928.01 23471.7 1.88425e+08 1.85504e+06 5.88378e+07)
(1.90107e+08 -62.8082 7970.34 1.88438e+08 1.85506e+06 5.88391e+07)
(1.90112e+08 -79.4127 5116.87 1.88441e+08 1.8548e+06 5.88408e+07)
(1.90113e+08 -15.512 3539.19 1.88441e+08 1.85485e+06 5.88419e+07)
(1.90114e+08 -2.68281 2433.46 1.88442e+08 1.85495e+06 5.88426e+07)
(1.90114e+08 -2.32457 1639.05 1.88442e+08 1.85501e+06 5.8843e+07)
(1.90114e+08 -2.32971 1079.51 1.88442e+08 1.85505e+06 5.88433e+07)
(1.90114e+08 -1.87277 692.981 1.88442e+08 1.85508e+06 5.88435e+07)
(1.90114e+08 -1.29792 424.234 1.88442e+08 1.85509e+06 5.88437e+07)
(1.90115e+08 -0.746638 228.621 1.88442e+08 1.8551e+06 5.88437e+07)
(1.90115e+08 -0.243079 72.1252 1.88442e+08 1.8551e+06 5.88438e+07)
(1.90115e+08 0.239198 -72.1412 1.88442e+08 1.8551e+06 5.88438e+07)
(1.90115e+08 0.743484 -228.64 1.88442e+08 1.8551e+06 5.88437e+07)
(1.90114e+08 1.29589 -424.258 1.88442e+08 1.85509e+06 5.88437e+07)
(1.90114e+08 1.87169 -693.019 1.88442e+08 1.85508e+06 5.88435e+07)
(1.90114e+08 2.3294 -1079.56 1.88442e+08 1.85505e+06 5.88433e+07)
(1.90114e+08 2.32471 -1639.13 1.88442e+08 1.85501e+06 5.8843e+07)
(1.90114e+08 2.68204 -2433.59 1.88442e+08 1.85495e+06 5.88426e+07)
(1.90113e+08 15.5073 -3539.4 1.88441e+08 1.85485e+06 5.88419e+07)
(1.90112e+08 79.4012 -5117.19 1.88441e+08 1.8548e+06 5.88408e+07)
(1.90107e+08 62.7906 -7970.78 1.88438e+08 1.85506e+06 5.88391e+07)
(1.90071e+08 -1928.03 -23472.2 1.88425e+08 1.85504e+06 5.88378e+07)
(1.89801e+08 -14718.7 -182809 1.88331e+08 1.84298e+06 5.87883e+07)
(1.87388e+08 -53431.6 -1.32963e+06 1.87182e+08 1.75832e+06 5.73738e+07)
(1.65761e+08 -81094 -6.26058e+06 1.76673e+08 1.49935e+06 4.53406e+07)
(1.11197e+08 -138321 -3.50935e+07 1.68436e+08 1.59631e+06 7.41619e+07)
(1.11361e+08 80072.8 3.52109e+07 1.69267e+08 994800 7.44687e+07)
(1.6605e+08 49857.1 6.30567e+06 1.77527e+08 929680 4.55452e+07)
(1.87783e+08 36033.7 1.35013e+06 1.88174e+08 1.09784e+06 5.76478e+07)
(1.90215e+08 10433.2 188107 1.89353e+08 1.15596e+06 5.90749e+07)
(1.9049e+08 1483.76 24205.4 1.8945e+08 1.16498e+06 5.91259e+07)
(1.90527e+08 -8.56238 7934.58 1.89463e+08 1.16523e+06 5.91273e+07)
(1.90532e+08 -52.9418 5056.3 1.89466e+08 1.16509e+06 5.91291e+07)
(1.90533e+08 -12.5366 3507.03 1.89466e+08 1.16514e+06 5.91301e+07)
(1.90534e+08 -2.96021 2413.55 1.89466e+08 1.16521e+06 5.91307e+07)
(1.90534e+08 -2.26839 1625.01 1.89467e+08 1.16526e+06 5.91312e+07)
(1.90534e+08 -2.09813 1069.67 1.89467e+08 1.1653e+06 5.91315e+07)
(1.90535e+08 -1.65726 686.411 1.89467e+08 1.16532e+06 5.91317e+07)
(1.90535e+08 -1.14193 420.138 1.89467e+08 1.16533e+06 5.91318e+07)
(1.90535e+08 -0.654343 226.403 1.89467e+08 1.16533e+06 5.91319e+07)
(1.90535e+08 -0.211499 71.4217 1.89467e+08 1.16534e+06 5.91319e+07)
(1.90535e+08 0.211706 -71.4501 1.89467e+08 1.16534e+06 5.91319e+07)
(1.90535e+08 0.654576 -226.432 1.89467e+08 1.16533e+06 5.91319e+07)
(1.90535e+08 1.14205 -420.169 1.89467e+08 1.16533e+06 5.91318e+07)
(1.90535e+08 1.65684 -686.452 1.89467e+08 1.16532e+06 5.91317e+07)
(1.90534e+08 2.09697 -1069.73 1.89467e+08 1.1653e+06 5.91315e+07)
(1.90534e+08 2.26639 -1625.09 1.89467e+08 1.16526e+06 5.91312e+07)
(1.90534e+08 2.95652 -2413.68 1.89466e+08 1.16521e+06 5.91307e+07)
(1.90533e+08 12.5287 -3507.23 1.89466e+08 1.16514e+06 5.91301e+07)
(1.90532e+08 52.9268 -5056.63 1.89466e+08 1.16509e+06 5.91291e+07)
(1.90527e+08 8.53989 -7935.05 1.89463e+08 1.16523e+06 5.91273e+07)
(1.9049e+08 -1483.79 -24205.9 1.8945e+08 1.16498e+06 5.91259e+07)
(1.90215e+08 -10433.2 -188107 1.89353e+08 1.15596e+06 5.90749e+07)
(1.87783e+08 -36033.7 -1.35013e+06 1.88174e+08 1.09784e+06 5.76478e+07)
(1.6605e+08 -49857 -6.30567e+06 1.77527e+08 929681 4.55452e+07)
(1.11361e+08 -80072.8 -3.52109e+07 1.69267e+08 994802 7.44687e+07)
(1.11465e+08 46007.2 3.52791e+07 1.69783e+08 610645 7.46583e+07)
(1.66229e+08 29901.4 6.33276e+06 1.78049e+08 569006 4.5673e+07)
(1.88027e+08 23524.7 1.36397e+06 1.88788e+08 675434 5.78192e+07)
(1.90472e+08 7145.9 191905 1.89988e+08 714068 5.92548e+07)
(1.90751e+08 1088.97 24763.3 1.90088e+08 720534 5.93068e+07)
(1.90789e+08 15.9332 7917.73 1.90101e+08 720841 5.93084e+07)
(1.90795e+08 -34.0645 5012.12 1.90103e+08 720780 5.93101e+07)
(1.90796e+08 -9.41861 3481.9 1.90104e+08 720820 5.93111e+07)
(1.90796e+08 -2.65259 2397.76 1.90104e+08 720875 5.93118e+07)
(1.90796e+08 -1.93683 1613.91 1.90105e+08 720914 5.93123e+07)
(1.90796e+08 -1.71885 1061.89 1.90105e+08 720939 5.93126e+07)
(1.90797e+08 -1.34588 681.199 1.90105e+08 720953 5.93128e+07)
(1.90797e+08 -0.925102 416.882 1.90105e+08 720962 5.93129e+07)
(1.90797e+08 -0.528829 224.637 1.90105e+08 720967 5.93129e+07)
(1.90797e+08 -0.169609 70.8621 1.90105e+08 720969 5.9313e+07)
(1.90797e+08 0.173276 -70.8992 1.90105e+08 720969 5.9313e+07)
(1.90797e+08 0.531921 -224.674 1.90105e+08 720967 5.93129e+07)
(1.90797e+08 0.927016 -416.918 1.90105e+08 720962 5.93129e+07)
(1.90797e+08 1.34595 -681.242 1.90105e+08 720954 5.93128e+07)
(1.90796e+08 1.71687 -1061.95 1.90105e+08 720939 5.93126e+07)
(1.90796e+08 1.93289 -1613.99 1.90105e+08 720914 5.93123e+07)
(1.90796e+08 2.64623 -2397.89 1.90104e+08 720875 5.93118e+07)
(1.90796e+08 9.40786 -3482.1 1.90104e+08 720820 5.93111e+07)
(1.90795e+08 34.0467 -5012.45 1.90103e+08 720780 5.93101e+07)
(1.90789e+08 -15.9587 -7918.22 1.90101e+08 720841 5.93084e+07)
(1.90751e+08 -1088.99 -24763.9 1.90088e+08 720534 5.93068e+07)
(1.90472e+08 -7145.92 -191906 1.89988e+08 714068 5.92548e+07)
(1.88027e+08 -23524.7 -1.36397e+06 1.88788e+08 675434 5.78192e+07)
(1.66229e+08 -29901.3 -6.33276e+06 1.78049e+08 569007 4.5673e+07)
(1.11465e+08 -46007.2 -3.52791e+07 1.69783e+08 610648 7.46583e+07)
(1.11529e+08 25810.2 3.53183e+07 1.70095e+08 360186 7.47721e+07)
(1.66337e+08 17227 6.34854e+06 1.78361e+08 335087 4.57503e+07)
(1.88176e+08 14523.4 1.3729e+06 1.89158e+08 399287 5.79231e+07)
(1.90629e+08 4598.32 194497 1.90374e+08 423540 5.93641e+07)
(1.9091e+08 740.477 25163.7 1.90476e+08 427849 5.94169e+07)
(1.90948e+08 21.9094 7910.9 1.90488e+08 428123 5.94186e+07)
(1.90954e+08 -20.7123 4981.38 1.90491e+08 428101 5.94203e+07)
(1.90955e+08 -6.46712 3463.49 1.90491e+08 428132 5.94213e+07)
(1.90955e+08 -2.03196 2386.04 1.90492e+08 428170 5.9422e+07)
(1.90955e+08 -1.45352 1605.67 1.90492e+08 428197 5.94224e+07)
(1.90956e+08 -1.26152 1056.11 1.90492e+08 428214 5.94227e+07)
(1.90956e+08 -0.983528 677.322 1.90492e+08 428225 5.94229e+07)
(1.90956e+08 -0.67525 414.456 1.90492e+08 428231 5.9423e+07)
(1.90956e+08 -0.385123 223.321 1.90492e+08 428234 5.94231e+07)
(1.90956e+08 -0.122207 70.4449 1.90492e+08 428236 5.94231e+07)
(1.90956e+08 0.128501 -70.4878 1.90492e+08 428236 5.94231e+07)
(1.90956e+08 0.390365 -223.362 1.90492e+08 428234 5.94231e+07)
(1.90956e+08 0.678474 -414.496 1.90492e+08 428231 5.9423e+07)
(1.90956e+08 0.98389 -677.368 1.90492e+08 428225 5.94229e+07)
(1.90956e+08 1.25879 -1056.17 1.90492e+08 428215 5.94227e+07)
(1.90955e+08 1.44792 -1605.75 1.90492e+08 428197 5.94224e+07)
(1.90955e+08 2.02334 -2386.17 1.90492e+08 428170 5.9422e+07)
(1.90955e+08 6.454 -3463.7 1.90491e+08 428132 5.94213e+07)
(1.90954e+08 20.6926 -4981.74 1.90491e+08 428101 5.94203e+07)
(1.90948e+08 -21.9364 -7911.43 1.90488e+08 428123 5.94186e+07)
(1.9091e+08 -740.506 -25164.3 1.90476e+08 427849 5.94169e+07)
(1.90629e+08 -4598.34 -194497 1.90374e+08 423540 5.93641e+07)
(1.88176e+08 -14523.4 -1.3729e+06 1.89158e+08 399287 5.79231e+07)
(1.66337e+08 -17226.9 -6.34853e+06 1.78361e+08 335088 4.57503e+07)
(1.11529e+08 -25810.1 -3.53183e+07 1.70095e+08 360189 7.47721e+07)
(1.11565e+08 13098.8 3.53396e+07 1.70271e+08 188709 7.4836e+07)
(1.66399e+08 8865.25 6.35716e+06 1.78536e+08 175415 4.57938e+07)
(1.8826e+08 7843.01 1.37818e+06 1.89368e+08 209562 5.79818e+07)
(1.90717e+08 2560.35 196102 1.90592e+08 222831 5.9426e+07)
(1.91e+08 428.667 25421.6 1.90695e+08 225289 5.94793e+07)
(1.91039e+08 16.9327 7908.8 1.90708e+08 225473 5.9481e+07)
(1.91044e+08 -11.0407 4962 1.9071e+08 225468 5.94828e+07)
(1.91045e+08 -3.75686 3451.45 1.90711e+08 225487 5.94837e+07)
(1.91045e+08 -1.26086 2378.29 1.90711e+08 225510 5.94844e+07)
(1.91046e+08 -0.894332 1600.22 1.90711e+08 225526 5.94849e+07)
(1.91046e+08 -0.767105 1052.29 1.90712e+08 225536 5.94852e+07)
(1.91046e+08 -0.596665 674.754 1.90712e+08 225542 5.94853e+07)
(1.91046e+08 -0.409074 412.847 1.90712e+08 225546 5.94855e+07)
(1.91046e+08 -0.232355 222.447 1.90712e+08 225548 5.94855e+07)
(1.91046e+08 -0.0722333 70.168 1.90712e+08 225549 5.94855e+07)
(1.91046e+08 0.0801838 -70.2147 1.90712e+08 225549 5.94855e+07)
(1.91046e+08 0.238923 -222.492 1.90712e+08 225548 5.94855e+07)
(1.91046e+08 0.413044 -412.89 1.90712e+08 225546 5.94855e+07)
(1.91046e+08 0.597079 -674.802 1.90712e+08 225543 5.94853e+07)
(1.91046e+08 0.763709 -1052.35 1.90712e+08 225536 5.94852e+07)
(1.91046e+08 0.887413 -1600.31 1.90711e+08 225526 5.94849e+07)
(1.91045e+08 1.25049 -2378.43 1.90711e+08 225510 5.94844e+07)
(1.91045e+08 3.74196 -3451.67 1.90711e+08 225487 5.94837e+07)
(1.91044e+08 11.0196 -4962.37 1.9071e+08 225468 5.94828e+07)
(1.91039e+08 -16.9601 -7909.36 1.90708e+08 225472 5.9481e+07)
(1.91e+08 -428.696 -25422.3 1.90695e+08 225289 5.94793e+07)
(1.90717e+08 -2560.37 -196102 1.90592e+08 222831 5.9426e+07)
(1.8826e+08 -7842.99 -1.37818e+06 1.89368e+08 209562 5.79818e+07)
(1.66399e+08 -8865.17 -6.35715e+06 1.78536e+08 175416 4.57938e+07)
(1.11565e+08 -13098.8 -3.53396e+07 1.70271e+08 188711 7.4836e+07)
(1.11581e+08 4007.06 3.5349e+07 1.7035e+08 58616.1 7.48646e+07)
(1.66426e+08 2727.32 6.36096e+06 1.78615e+08 54471 4.58133e+07)
(1.88297e+08 2473.5 1.38062e+06 1.89462e+08 65158.7 5.80082e+07)
(1.90757e+08 820.796 196867 1.90691e+08 69373.6 5.94539e+07)
(1.9104e+08 140.231 25547.8 1.90794e+08 70171.6 5.95074e+07)
(1.91079e+08 6.2294 7908.43 1.90807e+08 70235.6 5.95092e+07)
(1.91085e+08 -3.46029 4952.62 1.90809e+08 70235.3 5.95109e+07)
(1.91086e+08 -1.23262 3445.5 1.9081e+08 70241.9 5.95119e+07)
(1.91086e+08 -0.427257 2374.44 1.9081e+08 70249.4 5.95125e+07)
(1.91086e+08 -0.301994 1597.52 1.90811e+08 70254.8 5.9513e+07)
(1.91087e+08 -0.257364 1050.39 1.90811e+08 70258.2 5.95133e+07)
(1.91087e+08 -0.199499 673.475 1.90811e+08 70260.2 5.95135e+07)
(1.91087e+08 -0.135844 412.044 1.90811e+08 70261.5 5.95136e+07)
(1.91087e+08 -0.0757089 222.011 1.90811e+08 70262.1 5.95136e+07)
(1.91087e+08 -0.0213649 70.0293 1.90811e+08 70262.5 5.95137e+07)
(1.91087e+08 0.029947 -70.0789 1.90811e+08 70262.5 5.95137e+07)
(1.91087e+08 0.0827331 -222.059 1.90811e+08 70262.3 5.95136e+07)
(1.91087e+08 0.139968 -412.09 1.90811e+08 70261.7 5.95136e+07)
(1.91087e+08 0.199722 -673.525 1.90811e+08 70260.5 5.95135e+07)
(1.91087e+08 0.253404 -1050.45 1.90811e+08 70258.4 5.95133e+07)
(1.91086e+08 0.294147 -1597.61 1.90811e+08 70255 5.9513e+07)