/*--------------------------------*- C++ -*----------------------------------*\
| =========                 |                                                 |
| \\      /  F ield         | OpenFOAM: The Open Source CFD Toolbox           |
|  \\    /   O peration     | Version:  2106                                  |
|   \\  /    A nd           | Website:  www.openfoam.com                      |
|    \\/     M anipulation  |                                                 |
\*---------------------------------------------------------------------------*/
FoamFile
{
    version     2.0;
    format      ascii;
    arch        "LSB;label=32;scalar=64";
    class       volSymmTensorField;
    location    "89";
    object      sigma;
}
// * * * * * * * * * * * * * * * * * * * * * * * * * * * * * * * * * * * * * //

dimensions      [1 -1 -2 0 0 0 0];

internalField   nonuniform List<symmTensor> 
9000
(
(5.40628e+07 -157046 2.50099e+07 2.20138e+07 3.20687e+07 8.61866e+07)
(9.65087e+07 273909 4.86956e+06 2.41435e+07 3.39118e+07 6.98619e+07)
(1.11233e+08 174345 1.31639e+06 2.60073e+07 3.60085e+07 8.22561e+07)
(1.13054e+08 26688.9 223012 2.61438e+07 3.64722e+07 8.43558e+07)
(1.13275e+08 -416.134 21325.7 2.61774e+07 3.64917e+07 8.44483e+07)
(1.13302e+08 -767.314 4023.31 2.61866e+07 3.64806e+07 8.44219e+07)
(1.13305e+08 -67.5251 4310.43 2.61877e+07 3.64787e+07 8.44189e+07)
(1.13306e+08 36.509 3601.61 2.61878e+07 3.64792e+07 8.44218e+07)
(1.13307e+08 21.9296 2547.41 2.61879e+07 3.64797e+07 8.44244e+07)
(1.13307e+08 11.108 1715.06 2.61879e+07 3.648e+07 8.44261e+07)
(1.13308e+08 6.58619 1128.92 2.6188e+07 3.64801e+07 8.44272e+07)
(1.13308e+08 4.06884 723.984 2.6188e+07 3.64803e+07 8.44279e+07)
(1.13308e+08 2.40566 442.134 2.61881e+07 3.64803e+07 8.44283e+07)
(1.13308e+08 1.2596 237.636 2.61881e+07 3.64804e+07 8.44285e+07)
(1.13308e+08 0.390463 74.9331 2.61881e+07 3.64804e+07 8.44286e+07)
(1.13308e+08 -0.393931 -74.6585 2.61881e+07 3.64804e+07 8.44286e+07)
(1.13308e+08 -1.26253 -237.409 2.61881e+07 3.64804e+07 8.44285e+07)
(1.13308e+08 -2.40754 -441.996 2.61881e+07 3.64803e+07 8.44283e+07)
(1.13308e+08 -4.06933 -723.968 2.6188e+07 3.64803e+07 8.44279e+07)
(1.13308e+08 -6.58516 -1129.04 2.6188e+07 3.64802e+07 8.44272e+07)
(1.13307e+08 -11.1056 -1715.32 2.61879e+07 3.648e+07 8.44261e+07)
(1.13307e+08 -21.9263 -2547.8 2.61879e+07 3.64797e+07 8.44244e+07)
(1.13306e+08 -36.5059 -3602.12 2.61878e+07 3.64792e+07 8.44218e+07)
(1.13305e+08 67.5253 -4310.98 2.61877e+07 3.64787e+07 8.44189e+07)
(1.13302e+08 767.307 -4023.61 2.61866e+07 3.64806e+07 8.44219e+07)
(1.13275e+08 416.119 -21325.2 2.61774e+07 3.64917e+07 8.44483e+07)
(1.13054e+08 -26688.9 -223011 2.61438e+07 3.64722e+07 8.43558e+07)
(1.11233e+08 -174345 -1.31638e+06 2.60073e+07 3.60085e+07 8.22561e+07)
(9.65087e+07 -273910 -4.86956e+06 2.41435e+07 3.39118e+07 6.98619e+07)
(5.40628e+07 157045 -2.50099e+07 2.20138e+07 3.20687e+07 8.61867e+07)
(4.15257e+07 -29431.4 2.41325e+07 2.77837e+07 3.5377e+07 1.23618e+07)
(7.24849e+07 347691 4.16946e+06 2.74222e+07 3.71949e+07 -9.32081e+06)
(8.57013e+07 223705 783035 2.99392e+07 3.95175e+07 -1.73018e+06)
(8.70497e+07 36909.9 105806 2.98383e+07 4.01123e+07 -843039)
(8.71884e+07 -1363.68 17129.2 2.98644e+07 4.01373e+07 -817362)
(8.72108e+07 -1473.55 7045.02 2.98876e+07 4.01194e+07 -817308)
(8.72146e+07 -174.894 4671.62 2.98914e+07 4.01158e+07 -815918)
(8.72151e+07 28.8301 3318.45 2.98909e+07 4.01163e+07 -814934)
(8.72153e+07 11.6819 2314.98 2.98905e+07 4.01168e+07 -814226)
(8.72155e+07 0.329354 1569.03 2.98902e+07 4.01171e+07 -813729)
(8.72156e+07 -1.16905 1036.62 2.98901e+07 4.01173e+07 -813399)
(8.72157e+07 -0.920182 666.195 2.989e+07 4.01174e+07 -813190)
(8.72157e+07 -0.621402 407.63 2.98899e+07 4.01175e+07 -813062)
(8.72157e+07 -0.359076 219.423 2.98899e+07 4.01175e+07 -812989)
(8.72158e+07 -0.120993 69.2285 2.98899e+07 4.01175e+07 -812956)
(8.72158e+07 0.106709 -69.0288 2.98899e+07 4.01175e+07 -812956)
(8.72157e+07 0.347262 -219.259 2.98899e+07 4.01175e+07 -812989)
(8.72157e+07 0.614018 -407.534 2.98899e+07 4.01175e+07 -813062)
(8.72157e+07 0.918226 -666.19 2.989e+07 4.01174e+07 -813190)
(8.72156e+07 1.17277 -1036.71 2.98901e+07 4.01173e+07 -813399)
(8.72155e+07 -0.320381 -1569.23 2.98902e+07 4.01171e+07 -813728)
(8.72153e+07 -11.6692 -2315.27 2.98905e+07 4.01168e+07 -814226)
(8.72151e+07 -28.8174 -3318.81 2.98909e+07 4.01163e+07 -814934)
(8.72146e+07 174.901 -4672.02 2.98914e+07 4.01158e+07 -815918)
(8.72108e+07 1473.55 -7045.4 2.98876e+07 4.01194e+07 -817309)
(8.71884e+07 1363.67 -17129.4 2.98644e+07 4.01373e+07 -817362)
(8.70497e+07 -36909.9 -105806 2.98383e+07 4.01123e+07 -843041)
(8.57013e+07 -223705 -783032 2.99392e+07 3.95175e+07 -1.73018e+06)
(7.24849e+07 -347691 -4.16945e+06 2.74222e+07 3.71949e+07 -9.3208e+06)
(4.15257e+07 29431 -2.41325e+07 2.77837e+07 3.5377e+07 1.23618e+07)
(4.51593e+07 593453 2.42418e+07 5.45543e+07 3.00328e+07 5.30833e+06)
(7.97582e+07 447337 4.08922e+06 5.70685e+07 3.14021e+07 -1.59974e+07)
(9.36425e+07 268489 692532 6.16935e+07 3.35472e+07 -8.66511e+06)
(9.50532e+07 50310.4 74497.5 6.18823e+07 3.41098e+07 -7.91638e+06)
(9.51868e+07 115.157 14747.8 6.19229e+07 3.41402e+07 -7.89955e+06)
(9.52051e+07 -1677.82 7887.74 6.19458e+07 3.4124e+07 -7.89518e+06)
(9.52085e+07 -249.156 4792.48 6.19499e+07 3.41205e+07 -7.89283e+06)
(9.52093e+07 34.7295 3195.34 6.19498e+07 3.41209e+07 -7.89196e+06)
(9.52096e+07 22.7119 2205.69 6.19496e+07 3.41215e+07 -7.8914e+06)
(9.52097e+07 6.74647 1497.19 6.19496e+07 3.41218e+07 -7.89099e+06)
(9.52099e+07 2.47977 990.467 6.19496e+07 3.41219e+07 -7.89071e+06)
(9.521e+07 1.22793 637.072 6.19496e+07 3.41221e+07 -7.89054e+06)
(9.521e+07 0.610728 390.139 6.19495e+07 3.41221e+07 -7.89043e+06)
(9.52101e+07 0.273867 210.158 6.19495e+07 3.41222e+07 -7.89037e+06)
(9.52101e+07 0.0737056 66.3207 6.19495e+07 3.41222e+07 -7.89034e+06)
(9.52101e+07 -0.0884889 -66.1659 6.19495e+07 3.41222e+07 -7.89034e+06)
(9.52101e+07 -0.285894 -210.032 6.19495e+07 3.41222e+07 -7.89037e+06)
(9.521e+07 -0.618104 -390.067 6.19495e+07 3.41221e+07 -7.89043e+06)
(9.521e+07 -1.23017 -637.072 6.19496e+07 3.41221e+07 -7.89054e+06)
(9.52099e+07 -2.47701 -990.548 6.19496e+07 3.41219e+07 -7.89071e+06)
(9.52097e+07 -6.7394 -1497.35 6.19496e+07 3.41218e+07 -7.89099e+06)
(9.52096e+07 -22.703 -2205.92 6.19496e+07 3.41215e+07 -7.8914e+06)
(9.52093e+07 -34.7242 -3195.63 6.19498e+07 3.41209e+07 -7.89196e+06)
(9.52085e+07 249.156 -4792.82 6.19499e+07 3.41205e+07 -7.89283e+06)
(9.52051e+07 1677.84 -7888.15 6.19458e+07 3.4124e+07 -7.89518e+06)
(9.51868e+07 -115.089 -14748.3 6.19229e+07 3.41402e+07 -7.89955e+06)
(9.50532e+07 -50310.3 -74497.5 6.18823e+07 3.41098e+07 -7.91638e+06)
(9.36425e+07 -268489 -692530 6.16935e+07 3.35472e+07 -8.66511e+06)
(7.97582e+07 -447337 -4.08921e+06 5.70685e+07 3.14021e+07 -1.59974e+07)
(4.51593e+07 -593453 -2.42418e+07 5.45543e+07 3.00328e+07 5.30833e+06)
(4.96679e+07 934183 2.507e+07 7.36615e+07 2.12104e+07 1.23145e+07)
(8.8274e+07 450434 4.22841e+06 7.78071e+07 2.18971e+07 -8.9433e+06)
(1.03154e+08 255566 754246 8.38241e+07 2.3622e+07 -942551)
(1.04705e+08 52698 79719.4 8.42576e+07 2.40753e+07 -90146.5)
(1.04854e+08 1653.16 13995.1 8.43057e+07 2.41058e+07 -69250.3)
(1.04872e+08 -1494.67 7795.84 8.43251e+07 2.40942e+07 -66189.1)
(1.04875e+08 -278.46 4766.08 8.43288e+07 2.40913e+07 -64085.7)
(1.04876e+08 24.5926 3131.29 8.4329e+07 2.40916e+07 -63191.6)
(1.04876e+08 23.6879 2148.03 8.4329e+07 2.4092e+07 -62609.3)
(1.04876e+08 8.39236 1456.65 8.4329e+07 2.40923e+07 -62191.6)
(1.04877e+08 3.40603 963.661 8.43291e+07 2.40924e+07 -61914)
(1.04877e+08 1.71379 619.928 8.43291e+07 2.40925e+07 -61739.3)
(1.04877e+08 0.86709 379.75 8.43291e+07 2.40926e+07 -61633.2)
(1.04877e+08 0.398343 204.624 8.43291e+07 2.40926e+07 -61572.8)
(1.04877e+08 0.11072 64.5783 8.43291e+07 2.40926e+07 -61545.4)
(1.04877e+08 -0.125904 -64.4565 8.43291e+07 2.40926e+07 -61545.4)
(1.04877e+08 -0.410654 -204.526 8.43291e+07 2.40926e+07 -61572.7)
(1.04877e+08 -0.874663 -379.696 8.43291e+07 2.40926e+07 -61633)
(1.04877e+08 -1.71633 -619.933 8.43291e+07 2.40925e+07 -61739.1)
(1.04877e+08 -3.40387 -963.734 8.43291e+07 2.40924e+07 -61913.9)
(1.04876e+08 -8.38638 -1456.79 8.4329e+07 2.40923e+07 -62191.5)
(1.04876e+08 -23.6811 -2148.23 8.4329e+07 2.4092e+07 -62609.2)
(1.04876e+08 -24.5907 -3131.54 8.4329e+07 2.40916e+07 -63191.6)
(1.04875e+08 278.457 -4766.39 8.43288e+07 2.40913e+07 -64085.8)
(1.04872e+08 1494.69 -7796.24 8.43251e+07 2.40942e+07 -66189.3)
(1.04854e+08 -1653.05 -13995.6 8.43057e+07 2.41058e+07 -69251.1)
(1.04705e+08 -52697.9 -79719.4 8.42576e+07 2.40753e+07 -90149.1)
(1.03154e+08 -255566 -754244 8.38241e+07 2.3622e+07 -942555)
(8.8274e+07 -450435 -4.22841e+06 7.78071e+07 2.18971e+07 -8.9433e+06)
(4.96679e+07 -934183 -2.507e+07 7.36615e+07 2.12104e+07 1.23145e+07)
(5.25518e+07 919700 2.61038e+07 8.55241e+07 1.3671e+07 1.84278e+07)
(9.37513e+07 394119 4.43328e+06 9.07227e+07 1.3863e+07 -3.28309e+06)
(1.09518e+08 212710 842402 9.76012e+07 1.51643e+07 5.3404e+06)
(1.11194e+08 47000.6 95520.6 9.82046e+07 1.55074e+07 6.30079e+06)
(1.11362e+08 2550.69 14346.8 9.82584e+07 1.5535e+07 6.32708e+06)
(1.11382e+08 -1139.66 7432.19 9.82744e+07 1.55277e+07 6.32873e+06)
(1.11385e+08 -264.723 4665.44 9.82777e+07 1.55255e+07 6.33053e+06)
(1.11386e+08 9.12202 3082.48 9.8278e+07 1.55257e+07 6.33144e+06)
(1.11386e+08 18.1356 2108.92 9.82781e+07 1.5526e+07 6.33205e+06)
(1.11386e+08 6.47216 1427.74 9.82782e+07 1.55262e+07 6.33248e+06)
(1.11387e+08 2.28567 943.994 9.82783e+07 1.55263e+07 6.33276e+06)
(1.11387e+08 0.962487 607.181 9.82784e+07 1.55264e+07 6.33294e+06)
(1.11387e+08 0.398573 371.962 9.82784e+07 1.55264e+07 6.33305e+06)
(1.11387e+08 0.145302 200.455 9.82784e+07 1.55265e+07 6.33311e+06)
(1.11387e+08 0.0307629 63.2609 9.82784e+07 1.55265e+07 6.33313e+06)
(1.11387e+08 -0.0463136 -63.1688 9.82784e+07 1.55265e+07 6.33313e+06)
(1.11387e+08 -0.157972 -200.381 9.82784e+07 1.55265e+07 6.33311e+06)
(1.11387e+08 -0.406473 -371.924 9.82784e+07 1.55264e+07 6.33305e+06)
(1.11387e+08 -0.965273 -607.191 9.82784e+07 1.55264e+07 6.33294e+06)
(1.11387e+08 -2.28368 -944.06 9.82783e+07 1.55263e+07 6.33276e+06)
(1.11386e+08 -6.46637 -1427.87 9.82782e+07 1.55262e+07 6.33248e+06)
(1.11386e+08 -18.1291 -2109.1 9.82781e+07 1.5526e+07 6.33205e+06)
(1.11386e+08 -9.12048 -3082.71 9.8278e+07 1.55257e+07 6.33144e+06)
(1.11385e+08 264.721 -4665.73 9.82777e+07 1.55255e+07 6.33053e+06)
(1.11382e+08 1139.69 -7432.56 9.82744e+07 1.55277e+07 6.32873e+06)
(1.11362e+08 -2550.59 -14347.3 9.82584e+07 1.5535e+07 6.32708e+06)
(1.11194e+08 -47000.5 -95520.5 9.82046e+07 1.55074e+07 6.30079e+06)
(1.09518e+08 -212710 -842401 9.76012e+07 1.51643e+07 5.3404e+06)
(9.37513e+07 -394119 -4.43328e+06 9.07227e+07 1.3863e+07 -3.28309e+06)
(5.25518e+07 -919700 -2.61038e+07 8.55241e+07 1.3671e+07 1.84278e+07)
(5.41347e+07 724655 2.70107e+07 9.27078e+07 8.52528e+06 2.19405e+07)
(9.6802e+07 313101 4.63869e+06 9.85938e+07 8.47033e+06 -344047)
(1.13246e+08 164836 919452 1.06044e+08 9.42071e+06 8.72147e+06)
(1.15021e+08 38299.4 111539 1.06762e+08 9.67557e+06 9.75577e+06)
(1.15205e+08 2823.74 15269.2 1.06821e+08 9.6992e+06 9.7864e+06)
(1.15228e+08 -775.689 7077.11 1.06835e+08 9.69495e+06 9.7874e+06)
(1.15231e+08 -225.432 4540.16 1.06838e+08 9.6935e+06 9.789e+06)
(1.15232e+08 -3.75421 3036.24 1.06838e+08 9.6936e+06 9.7899e+06)
(1.15232e+08 11.0559 2076.71 1.06838e+08 9.69383e+06 9.79051e+06)
(1.15232e+08 3.53159 1403.67 1.06838e+08 9.69397e+06 9.79094e+06)
(1.15233e+08 0.633633 927.336 1.06838e+08 9.69405e+06 9.79122e+06)
(1.15233e+08 -0.0850849 596.283 1.06839e+08 9.6941e+06 9.79139e+06)
(1.15233e+08 -0.235908 365.266 1.06839e+08 9.69414e+06 9.7915e+06)
(1.15233e+08 -0.19147 196.858 1.06839e+08 9.69415e+06 9.79156e+06)
(1.15233e+08 -0.0743828 62.1219 1.06839e+08 9.69416e+06 9.79159e+06)
(1.15233e+08 0.05943 -62.0573 1.06839e+08 9.69416e+06 9.79159e+06)
(1.15233e+08 0.17922 -196.807 1.06839e+08 9.69415e+06 9.79156e+06)
(1.15233e+08 0.228173 -365.242 1.06839e+08 9.69414e+06 9.7915e+06)
(1.15233e+08 0.0822779 -596.298 1.06839e+08 9.6941e+06 9.79139e+06)
(1.15233e+08 -0.631778 -927.396 1.06838e+08 9.69405e+06 9.79122e+06)
(1.15232e+08 -3.52605 -1403.78 1.06838e+08 9.69397e+06 9.79094e+06)
(1.15232e+08 -11.0496 -2076.87 1.06838e+08 9.69383e+06 9.79051e+06)
(1.15232e+08 3.75641 -3036.45 1.06838e+08 9.6936e+06 9.7899e+06)
(1.15231e+08 225.432 -4540.44 1.06838e+08 9.6935e+06 9.789e+06)
(1.15228e+08 775.709 -7077.46 1.06835e+08 9.69495e+06 9.78739e+06)
(1.15205e+08 -2823.67 -15269.5 1.06821e+08 9.6992e+06 9.7864e+06)
(1.15021e+08 -38299.4 -111539 1.06762e+08 9.67557e+06 9.75577e+06)
(1.13246e+08 -164836 -919450 1.06044e+08 9.42071e+06 8.72147e+06)
(9.6802e+07 -313101 -4.63868e+06 9.85938e+07 8.47033e+06 -344045)
(5.41347e+07 -724655 -2.70107e+07 9.27078e+07 8.52528e+06 2.19405e+07)
(5.50054e+07 500509 2.76777e+07 9.71005e+07 5.29589e+06 2.38182e+07)
(9.84907e+07 230284 4.81277e+06 1.03406e+08 5.15942e+06 1.05591e+06)
(1.15416e+08 122698 979568 1.11266e+08 5.83583e+06 1.04217e+07)
(1.17264e+08 29686.3 124810 1.12065e+08 6.0236e+06 1.15039e+07)
(1.17461e+08 2691.68 16369.9 1.12129e+08 6.04326e+06 1.15379e+07)
(1.17486e+08 -479.795 6813.75 1.12141e+08 6.04099e+06 1.15387e+07)
(1.17489e+08 -177.51 4418.63 1.12144e+08 6.04003e+06 1.15402e+07)
(1.1749e+08 -11.4254 2991.3 1.12145e+08 6.0401e+06 1.15411e+07)
(1.17491e+08 5.14591 2048.07 1.12145e+08 6.04027e+06 1.15417e+07)
(1.17491e+08 1.01408 1382.51 1.12145e+08 6.04038e+06 1.15421e+07)
(1.17491e+08 -0.709704 912.575 1.12145e+08 6.04044e+06 1.15424e+07)
(1.17491e+08 -0.912141 586.565 1.12145e+08 6.04048e+06 1.15425e+07)
(1.17491e+08 -0.729854 359.271 1.12145e+08 6.0405e+06 1.15426e+07)
(1.17491e+08 -0.451084 193.63 1.12145e+08 6.04052e+06 1.15427e+07)
(1.17491e+08 -0.15458 61.0988 1.12145e+08 6.04052e+06 1.15427e+07)
(1.17491e+08 0.141495 -61.0591 1.12145e+08 6.04052e+06 1.15427e+07)
(1.17491e+08 0.440325 -193.6 1.12145e+08 6.04052e+06 1.15427e+07)
(1.17491e+08 0.723005 -359.262 1.12145e+08 6.0405e+06 1.15426e+07)
(1.17491e+08 0.909594 -586.584 1.12145e+08 6.04048e+06 1.15425e+07)
(1.17491e+08 0.711258 -912.631 1.12145e+08 6.04044e+06 1.15424e+07)
(1.17491e+08 -1.00929 -1382.61 1.12145e+08 6.04038e+06 1.15421e+07)
(1.17491e+08 -5.14038 -2048.21 1.12145e+08 6.04027e+06 1.15417e+07)
(1.1749e+08 11.4275 -2991.5 1.12145e+08 6.0401e+06 1.15411e+07)
(1.17489e+08 177.509 -4418.89 1.12144e+08 6.04003e+06 1.15402e+07)
(1.17486e+08 479.805 -6814.09 1.12141e+08 6.04099e+06 1.15387e+07)
(1.17461e+08 -2691.64 -16370.2 1.12129e+08 6.04326e+06 1.15379e+07)
(1.17264e+08 -29686.2 -124810 1.12065e+08 6.0236e+06 1.15039e+07)
(1.15416e+08 -122698 -979566 1.11266e+08 5.83584e+06 1.04217e+07)
(9.84907e+07 -230284 -4.81276e+06 1.03406e+08 5.15942e+06 1.05591e+06)
(5.50054e+07 -500509 -2.76777e+07 9.71005e+07 5.29589e+06 2.38182e+07)
(5.5518e+07 318069 2.81192e+07 9.983e+07 3.30665e+06 2.48747e+07)
(9.94725e+07 158987 4.9442e+06 1.06367e+08 3.16921e+06 1.77641e+06)
(1.16722e+08 88866 1.02478e+06 1.14533e+08 3.63856e+06 1.13449e+07)
(1.18624e+08 22360 135101 1.1539e+08 3.77534e+06 1.2459e+07)
(1.18831e+08 2360.19 17426.8 1.1546e+08 3.79133e+06 1.24955e+07)
(1.18858e+08 -269.192 6643.12 1.15471e+08 3.79026e+06 1.24964e+07)
(1.18861e+08 -131.973 4313.79 1.15473e+08 3.78965e+06 1.24979e+07)
(1.18862e+08 -14.4473 2949.3 1.15474e+08 3.7897e+06 1.24987e+07)
(1.18862e+08 1.14215 2022.36 1.15474e+08 3.78983e+06 1.24993e+07)
(1.18863e+08 -0.662441 1363.82 1.15474e+08 3.78991e+06 1.24997e+07)
(1.18863e+08 -1.52519 899.498 1.15474e+08 3.78997e+06 1.25e+07)
(1.18863e+08 -1.38985 577.914 1.15474e+08 3.79e+06 1.25001e+07)
(1.18863e+08 -1.00782 353.919 1.15474e+08 3.79002e+06 1.25002e+07)
(1.18863e+08 -0.594333 190.742 1.15474e+08 3.79003e+06 1.25003e+07)
(1.18863e+08 -0.19779 60.1831 1.15474e+08 3.79003e+06 1.25003e+07)
(1.18863e+08 0.187599 -60.1648 1.15474e+08 3.79003e+06 1.25003e+07)
(1.18863e+08 0.585944 -190.731 1.15474e+08 3.79003e+06 1.25003e+07)
(1.18863e+08 1.00246 -353.921 1.15474e+08 3.79002e+06 1.25002e+07)
(1.18863e+08 1.38777 -577.938 1.15474e+08 3.79e+06 1.25001e+07)
(1.18863e+08 1.52624 -899.55 1.15474e+08 3.78997e+06 1.25e+07)
(1.18863e+08 0.665944 -1363.91 1.15474e+08 3.78991e+06 1.24997e+07)
(1.18862e+08 -1.13821 -2022.48 1.15474e+08 3.78983e+06 1.24993e+07)
(1.18862e+08 14.448 -2949.48 1.15474e+08 3.7897e+06 1.24987e+07)
(1.18861e+08 131.97 -4314.05 1.15473e+08 3.78965e+06 1.24979e+07)
(1.18858e+08 269.192 -6643.45 1.15471e+08 3.79026e+06 1.24964e+07)
(1.18831e+08 -2360.17 -17427.1 1.1546e+08 3.79133e+06 1.24955e+07)
(1.18624e+08 -22360 -135101 1.1539e+08 3.77534e+06 1.2459e+07)
(1.16722e+08 -88866 -1.02478e+06 1.14533e+08 3.63856e+06 1.13449e+07)
(9.94725e+07 -158986 -4.94419e+06 1.06367e+08 3.16921e+06 1.77641e+06)
(5.5518e+07 -318069 -2.81192e+07 9.983e+07 3.30665e+06 2.48747e+07)
(5.58393e+07 191946 2.83928e+07 1.01543e+08 2.07275e+06 2.55121e+07)
(1.00071e+08 104382 5.0352e+06 1.08196e+08 1.96273e+06 2.19577e+06)
(1.17534e+08 62877.1 1.05805e+06 1.16586e+08 2.28065e+06 1.18992e+07)
(1.19472e+08 16515.5 142906 1.17488e+08 2.37868e+06 1.30352e+07)
(1.19686e+08 1962.79 18344.7 1.17561e+08 2.39138e+06 1.30738e+07)
(1.19715e+08 -132.67 6541.77 1.17572e+08 2.39101e+06 1.30747e+07)
(1.19719e+08 -93.9564 4229.19 1.17574e+08 2.39064e+06 1.30762e+07)
(1.19719e+08 -14.3675 2911.85 1.17574e+08 2.39068e+06 1.3077e+07)
(1.1972e+08 -1.1469 1999.65 1.17575e+08 2.39078e+06 1.30776e+07)
(1.1972e+08 -1.56299 1347.55 1.17575e+08 2.39085e+06 1.3078e+07)
(1.1972e+08 -1.87563 888.102 1.17575e+08 2.39089e+06 1.30782e+07)
(1.1972e+08 -1.5641 570.347 1.17575e+08 2.39092e+06 1.30784e+07)
(1.1972e+08 -1.09848 349.223 1.17575e+08 2.39093e+06 1.30785e+07)
(1.1972e+08 -0.636808 188.206 1.17575e+08 2.39094e+06 1.30786e+07)
(1.1972e+08 -0.209107 59.3785 1.17575e+08 2.39094e+06 1.30786e+07)
(1.1972e+08 0.202375 -59.3779 1.17575e+08 2.39094e+06 1.30786e+07)
(1.1972e+08 0.631278 -188.209 1.17575e+08 2.39094e+06 1.30786e+07)
(1.1972e+08 1.09493 -349.235 1.17575e+08 2.39093e+06 1.30785e+07)
(1.1972e+08 1.56262 -570.374 1.17575e+08 2.39092e+06 1.30784e+07)
(1.1972e+08 1.87607 -888.152 1.17575e+08 2.39089e+06 1.30782e+07)
(1.1972e+08 1.56487 -1347.63 1.17575e+08 2.39085e+06 1.3078e+07)
(1.1972e+08 1.14868 -1999.76 1.17575e+08 2.39078e+06 1.30776e+07)
(1.19719e+08 14.3661 -2912.02 1.17574e+08 2.39068e+06 1.3077e+07)
(1.19719e+08 93.95 -4229.44 1.17574e+08 2.39064e+06 1.30762e+07)
(1.19715e+08 132.662 -6542.12 1.17572e+08 2.39101e+06 1.30747e+07)
(1.19686e+08 -1962.8 -18345 1.17561e+08 2.39138e+06 1.30738e+07)
(1.19472e+08 -16515.5 -142906 1.17488e+08 2.37868e+06 1.30351e+07)
(1.17534e+08 -62877 -1.05804e+06 1.16586e+08 2.28065e+06 1.18992e+07)
(1.00071e+08 -104382 -5.03519e+06 1.08196e+08 1.96273e+06 2.19577e+06)
(5.58393e+07 -191946 -2.83928e+07 1.01543e+08 2.07275e+06 2.55121e+07)
(5.60464e+07 112553 2.8556e+07 1.02622e+08 1.29893e+06 2.59104e+07)
(1.00446e+08 65987.3 5.09431e+06 1.09325e+08 1.22004e+06 2.45813e+06)
(1.18044e+08 43477.9 1.08193e+06 1.17876e+08 1.43077e+06 1.22497e+07)
(1.20007e+08 11976.7 148754 1.18811e+08 1.49965e+06 1.34007e+07)
(1.20227e+08 1568.85 19099.2 1.18888e+08 1.50947e+06 1.34409e+07)
(1.20256e+08 -51.1077 6485.55 1.18898e+08 1.50948e+06 1.3442e+07)
(1.2026e+08 -64.619 4163.66 1.189e+08 1.50927e+06 1.34434e+07)
(1.20261e+08 -12.6223 2879.88 1.18901e+08 1.50931e+06 1.34443e+07)
(1.20262e+08 -2.18303 1980.13 1.18901e+08 1.50939e+06 1.34448e+07)
(1.20262e+08 -1.89153 1333.71 1.18901e+08 1.50944e+06 1.34452e+07)
(1.20262e+08 -1.89571 878.405 1.18901e+08 1.50948e+06 1.34455e+07)
(1.20262e+08 -1.52389 563.886 1.18901e+08 1.5095e+06 1.34456e+07)
(1.20262e+08 -1.05613 345.204 1.18901e+08 1.50951e+06 1.34457e+07)
(1.20262e+08 -0.607548 186.032 1.18901e+08 1.50952e+06 1.34458e+07)
(1.20262e+08 -0.197796 58.6891 1.18901e+08 1.50952e+06 1.34458e+07)
(1.20262e+08 0.194638 -58.702 1.18901e+08 1.50952e+06 1.34458e+07)
(1.20262e+08 0.604981 -186.046 1.18901e+08 1.50952e+06 1.34458e+07)
(1.20262e+08 1.05448 -345.224 1.18901e+08 1.50951e+06 1.34457e+07)
(1.20262e+08 1.52301 -563.917 1.18901e+08 1.5095e+06 1.34456e+07)
(1.20262e+08 1.89546 -878.453 1.18901e+08 1.50948e+06 1.34455e+07)
(1.20262e+08 1.89164 -1333.78 1.18901e+08 1.50944e+06 1.34452e+07)
(1.20262e+08 2.18241 -1980.24 1.18901e+08 1.50939e+06 1.34448e+07)
(1.20261e+08 12.6184 -2880.04 1.18901e+08 1.50931e+06 1.34443e+07)
(1.2026e+08 64.6096 -4163.91 1.189e+08 1.50927e+06 1.34434e+07)
(1.20256e+08 51.0934 -6485.91 1.18898e+08 1.50948e+06 1.3442e+07)
(1.20227e+08 -1568.86 -19099.6 1.18888e+08 1.50947e+06 1.34409e+07)
(1.20007e+08 -11976.8 -148754 1.18811e+08 1.49965e+06 1.34007e+07)
(1.18044e+08 -43477.9 -1.08193e+06 1.17876e+08 1.43077e+06 1.22497e+07)
(1.00446e+08 -65987.1 -5.0943e+06 1.09325e+08 1.22004e+06 2.45814e+06)
(5.60464e+07 -112553 -2.8556e+07 1.02622e+08 1.29893e+06 2.59104e+07)
(5.61797e+07 65156.1 2.86515e+07 1.03298e+08 809479 2.616e+07)
(1.00681e+08 40569.2 5.13099e+06 1.1002e+08 756491 2.62461e+06)
(1.18365e+08 29321 1.09861e+06 1.18683e+08 893326 1.24726e+07)
(1.20344e+08 8489.63 153065 1.19642e+08 940615 1.36339e+07)
(1.20568e+08 1207.36 19696.2 1.19722e+08 947960 1.36754e+07)
(1.20598e+08 -6.9673 6456.46 1.19732e+08 948157 1.36765e+07)
(1.20602e+08 -43.0793 4114.37 1.19734e+08 948047 1.3678e+07)
(1.20603e+08 -10.2012 2853.71 1.19735e+08 948086 1.36788e+07)
(1.20604e+08 -2.40876 1963.93 1.19735e+08 948145 1.36793e+07)
(1.20604e+08 -1.84581 1322.29 1.19735e+08 948187 1.36797e+07)
(1.20604e+08 -1.70727 870.403 1.19735e+08 948214 1.368e+07)
(1.20604e+08 -1.34853 558.54 1.19735e+08 948230 1.36801e+07)
(1.20604e+08 -0.929204 341.871 1.19735e+08 948239 1.36802e+07)
(1.20604e+08 -0.532446 184.226 1.19735e+08 948244 1.36803e+07)
(1.20604e+08 -0.172099 58.1166 1.19735e+08 948246 1.36803e+07)
(1.20604e+08 0.172268 -58.1398 1.19735e+08 948246 1.36803e+07)
(1.20604e+08 0.532636 -184.25 1.19735e+08 948244 1.36803e+07)
(1.20604e+08 0.929302 -341.896 1.19735e+08 948239 1.36802e+07)
(1.20604e+08 1.34819 -558.573 1.19735e+08 948230 1.36801e+07)
(1.20604e+08 1.70633 -870.45 1.19735e+08 948214 1.368e+07)
(1.20604e+08 1.84419 -1322.36 1.19735e+08 948187 1.36797e+07)
(1.20604e+08 2.40576 -1964.04 1.19735e+08 948145 1.36793e+07)
(1.20603e+08 10.1947 -2853.87 1.19735e+08 948086 1.36788e+07)
(1.20602e+08 43.0671 -4114.63 1.19734e+08 948047 1.3678e+07)
(1.20598e+08 6.949 -6456.84 1.19732e+08 948157 1.36765e+07)
(1.20568e+08 -1207.38 -19696.6 1.19722e+08 947960 1.36754e+07)
(1.20344e+08 -8489.64 -153065 1.19642e+08 940614 1.36339e+07)
(1.18365e+08 -29321 -1.09861e+06 1.18683e+08 893326 1.24726e+07)
(1.00681e+08 -40569.2 -5.13099e+06 1.1002e+08 756491 2.62461e+06)
(5.61797e+07 -65156.1 -2.86515e+07 1.03298e+08 809482 2.616e+07)
(5.62642e+07 37436.5 2.8707e+07 1.03718e+08 496889 2.63143e+07)
(1.00826e+08 24331.1 5.15304e+06 1.10445e+08 463006 2.72863e+06)
(1.18564e+08 19142.3 1.10988e+06 1.19183e+08 549608 1.26121e+07)
(1.20554e+08 5814.7 156155 1.20159e+08 581045 1.37802e+07)
(1.2078e+08 886.103 20150.2 1.20241e+08 586307 1.38226e+07)
(1.20811e+08 12.965 6442.74 1.20251e+08 586556 1.38239e+07)
(1.20816e+08 -27.7186 4078.41 1.20253e+08 586506 1.38253e+07)
(1.20816e+08 -7.66402 2833.26 1.20254e+08 586539 1.38261e+07)
(1.20817e+08 -2.15844 1951.09 1.20254e+08 586584 1.38267e+07)
(1.20817e+08 -1.57602 1313.25 1.20254e+08 586615 1.3827e+07)
(1.20817e+08 -1.39864 864.07 1.20254e+08 586635 1.38273e+07)
(1.20817e+08 -1.09516 554.299 1.20254e+08 586648 1.38274e+07)
(1.20817e+08 -0.752766 339.221 1.20254e+08 586655 1.38275e+07)
(1.20817e+08 -0.430314 182.79 1.20254e+08 586658 1.38276e+07)
(1.20817e+08 -0.138012 57.6613 1.20254e+08 586660 1.38276e+07)
(1.20817e+08 0.140996 -57.6915 1.20254e+08 586660 1.38276e+07)
(1.20817e+08 0.43283 -182.819 1.20254e+08 586659 1.38276e+07)
(1.20817e+08 0.754323 -339.251 1.20254e+08 586655 1.38275e+07)
(1.20817e+08 1.09522 -554.334 1.20254e+08 586648 1.38274e+07)
(1.20817e+08 1.39704 -864.118 1.20254e+08 586636 1.38273e+07)
(1.20817e+08 1.57281 -1313.32 1.20254e+08 586616 1.3827e+07)
(1.20817e+08 2.15327 -1951.19 1.20254e+08 586584 1.38267e+07)
(1.20816e+08 7.65528 -2833.43 1.20254e+08 586539 1.38261e+07)
(1.20816e+08 27.7042 -4078.69 1.20253e+08 586506 1.38253e+07)
(1.20811e+08 -12.9858 -6443.14 1.20251e+08 586556 1.38239e+07)
(1.2078e+08 -886.127 -20150.6 1.20241e+08 586307 1.38226e+07)
(1.20554e+08 -5814.71 -156156 1.20159e+08 581045 1.37802e+07)
(1.18564e+08 -19142.3 -1.10988e+06 1.19183e+08 549608 1.26121e+07)
(1.00826e+08 -24331 -5.15303e+06 1.10445e+08 463007 2.72863e+06)
(5.62642e+07 -37436.5 -2.8707e+07 1.03718e+08 496891 2.63143e+07)
(5.6316e+07 21002 2.87389e+07 1.03972e+08 293088 2.64069e+07)
(1.00915e+08 14017.8 5.16587e+06 1.10699e+08 272664 2.79153e+06)
(1.18685e+08 11817.8 1.11715e+06 1.19484e+08 324904 1.26967e+07)
(1.20681e+08 3741.71 158264 1.20473e+08 344639 1.38692e+07)
(1.20909e+08 602.534 20476 1.20556e+08 348145 1.39122e+07)
(1.20941e+08 17.8279 6437.19 1.20566e+08 348368 1.39136e+07)
(1.20945e+08 -16.8538 4053.41 1.20568e+08 348350 1.3915e+07)
(1.20946e+08 -5.26237 2818.28 1.20569e+08 348375 1.39158e+07)
(1.20946e+08 -1.65342 1941.55 1.20569e+08 348406 1.39163e+07)
(1.20947e+08 -1.18275 1306.55 1.20569e+08 348429 1.39167e+07)
(1.20947e+08 -1.02651 859.369 1.20569e+08 348443 1.39169e+07)
(1.20947e+08 -0.800307 551.144 1.20569e+08 348451 1.39171e+07)
(1.20947e+08 -0.549458 337.247 1.20569e+08 348456 1.39172e+07)
(1.20947e+08 -0.313379 181.719 1.2057e+08 348459 1.39172e+07)
(1.20947e+08 -0.0994413 57.3218 1.2057e+08 348460 1.39173e+07)
(1.20947e+08 0.104563 -57.3567 1.2057e+08 348460 1.39173e+07)
(1.20947e+08 0.317645 -181.752 1.2057e+08 348459 1.39172e+07)
(1.20947e+08 0.552082 -337.28 1.20569e+08 348456 1.39172e+07)
(1.20947e+08 0.800602 -551.181 1.20569e+08 348451 1.39171e+07)
(1.20947e+08 1.02429 -859.417 1.20569e+08 348443 1.39169e+07)
(1.20947e+08 1.17819 -1306.62 1.20569e+08 348429 1.39167e+07)
(1.20946e+08 1.64642 -1941.65 1.20569e+08 348406 1.39163e+07)
(1.20946e+08 5.25169 -2818.45 1.20569e+08 348375 1.39158e+07)
(1.20945e+08 16.8378 -4053.69 1.20568e+08 348350 1.3915e+07)
(1.20941e+08 -17.8499 -6437.61 1.20566e+08 348368 1.39136e+07)
(1.20909e+08 -602.558 -20476.5 1.20556e+08 348145 1.39122e+07)
(1.20681e+08 -3741.72 -158265 1.20473e+08 344639 1.38692e+07)
(1.18685e+08 -11817.8 -1.11714e+06 1.19484e+08 324904 1.26967e+07)
(1.00915e+08 -14017.7 -5.16587e+06 1.10699e+08 272665 2.79153e+06)
(5.6316e+07 -21002 -2.87389e+07 1.03972e+08 293090 2.64069e+07)
(5.63454e+07 10658.6 2.87562e+07 1.04115e+08 153554 2.64589e+07)
(1.00964e+08 7213.75 5.17289e+06 1.10841e+08 142737 2.82693e+06)
(1.18753e+08 6381.94 1.12144e+06 1.19655e+08 170523 1.27444e+07)
(1.20753e+08 2083.39 159570 1.20651e+08 181320 1.39196e+07)
(1.20982e+08 348.811 20685.8 1.20735e+08 183320 1.3963e+07)
(1.21014e+08 13.7783 6435.48 1.20745e+08 183469 1.39644e+07)
(1.21019e+08 -8.9839 4037.63 1.20747e+08 183466 1.39658e+07)
(1.21019e+08 -3.057 2808.48 1.20748e+08 183481 1.39666e+07)
(1.2102e+08 -1.02597 1935.24 1.20748e+08 183500 1.39671e+07)
(1.2102e+08 -0.727728 1302.12 1.20748e+08 183513 1.39675e+07)
(1.2102e+08 -0.624201 856.26 1.20748e+08 183521 1.39677e+07)
(1.2102e+08 -0.485512 549.055 1.20748e+08 183526 1.39679e+07)
(1.2102e+08 -0.332868 335.938 1.20748e+08 183529 1.3968e+07)
(1.2102e+08 -0.189069 181.008 1.20748e+08 183531 1.3968e+07)
(1.2102e+08 -0.058777 57.0964 1.20748e+08 183532 1.3968e+07)
(1.2102e+08 0.0652464 -57.1344 1.20748e+08 183532 1.3968e+07)
(1.2102e+08 0.194414 -181.044 1.20748e+08 183531 1.3968e+07)
(1.2102e+08 0.336098 -335.973 1.20748e+08 183529 1.3968e+07)
(1.2102e+08 0.48585 -549.094 1.20748e+08 183526 1.39679e+07)
(1.2102e+08 0.621438 -856.31 1.20748e+08 183521 1.39677e+07)
(1.2102e+08 0.722097 -1302.19 1.20748e+08 183513 1.39675e+07)
(1.2102e+08 1.01754 -1935.35 1.20748e+08 183500 1.39671e+07)
(1.21019e+08 3.04488 -2808.66 1.20748e+08 183481 1.39666e+07)
(1.21019e+08 8.96676 -4037.93 1.20747e+08 183466 1.39658e+07)
(1.21014e+08 -13.8006 -6435.93 1.20745e+08 183469 1.39644e+07)
(1.20982e+08 -348.834 -20686.4 1.20735e+08 183320 1.3963e+07)
(1.20753e+08 -2083.4 -159570 1.20651e+08 181320 1.39196e+07)
(1.18753e+08 -6381.93 -1.12144e+06 1.19655e+08 170523 1.27444e+07)
(1.00964e+08 -7213.68 -5.17288e+06 1.10841e+08 142738 2.82693e+06)
(5.63454e+07 -10658.6 -2.87562e+07 1.04115e+08 153556 2.64589e+07)
(5.63587e+07 3260.59 2.87639e+07 1.0418e+08 47696.6 2.64821e+07)
(1.00987e+08 2219.25 5.17598e+06 1.10905e+08 44323.7 2.84281e+06)
(1.18784e+08 2012.71 1.12343e+06 1.19731e+08 53020.4 1.27659e+07)
(1.20785e+08 667.89 160193 1.20731e+08 56450.1 1.39423e+07)
(1.21015e+08 114.108 20788.5 1.20815e+08 57099.4 1.39858e+07)
(1.21047e+08 5.06893 6435.17 1.20826e+08 57151.5 1.39873e+07)
(1.21052e+08 -2.81568 4030 1.20828e+08 57151.3 1.39887e+07)
(1.21052e+08 -1.003 2803.64 1.20828e+08 57156.6 1.39895e+07)
(1.21053e+08 -0.347663 1932.11 1.20828e+08 57162.7 1.399e+07)
(1.21053e+08 -0.245736 1299.92 1.20829e+08 57167.1 1.39904e+07)
(1.21053e+08 -0.20942 854.713 1.20829e+08 57169.8 1.39906e+07)
(1.21053e+08 -0.162334 548.014 1.20829e+08 57171.5 1.39908e+07)
(1.21053e+08 -0.110537 335.285 1.20829e+08 57172.5 1.39909e+07)
(1.21053e+08 -0.0616052 180.653 1.20829e+08 57173.1 1.39909e+07)
(1.21054e+08 -0.0173848 56.9836 1.20829e+08 57173.3 1.39909e+07)
(1.21054e+08 0.0243682 -57.024 1.20829e+08 57173.4 1.39909e+07)
(1.21053e+08 0.0673209 -180.692 1.20829e+08 57173.2 1.39909e+07)
(1.21053e+08 0.113893 -335.322 1.20829e+08 57172.7 1.39909e+07)
(1.21053e+08 0.162516 -548.055 1.20829e+08 57171.7 1.39908e+07)
(1.21053e+08 0.206198 -854.765 1.20829e+08 57170 1.39906e+07)
(1.21053e+08 0.239351 -1299.99 1.20829e+08 57167.2 1.39904e+07)
(1.21053e+08 0.338262 -1932.22 1.20828e+08 57162.8 1.399e+07)
(1.21052e+08 0.989929 -2803.83 1.20828e+08 57156.7 1.39895e+07)
(1.21052e+08 2.798 -4030.32 1.20828e+08 57151.3 1.39887e+07)
(1.21047e+08 -5.09101 -6435.65 1.20826e+08 57151.4 1.39873e+07)
(1.21015e+08 -114.13 -20789.1 1.20815e+08 57099.3 1.39858e+07)