/*--------------------------------*- C++ -*----------------------------------*\
| =========                 |                                                 |
| \\      /  F ield         | OpenFOAM: The Open Source CFD Toolbox           |
|  \\    /   O peration     | Version:  2106                                  |
|   \\  /    A nd           | Website:  www.openfoam.com                      |
|    \\/     M anipulation  |                                                 |
\*---------------------------------------------------------------------------*/
FoamFile
{
    version     2.0;
    format      ascii;
    arch        "LSB;label=32;scalar=64";
    class       volTensorField;
    location    "89";
    object      testEpsilon;
}
// * * * * * * * * * * * * * * * * * * * * * * * * * * * * * * * * * * * * * //

dimensions      [0 0 0 0 0 0 0];

internalField   nonuniform List<tensor> 
9000
(
(-0.0858704 0.00383039 -0.106207 -0.00443925 -0.147997 -0.260752 0.20317 0.385082 -0.0235984)
(-0.0168652 0.00365258 -0.00289302 -0.00259063 -0.157145 -0.27297 0.0217723 0.404446 -0.0685201)
(-0.00194199 0.00250004 0.00206275 -0.0018241 -0.167152 -0.28982 0.00304087 0.429425 -0.0581139)
(-0.000319253 0.000477541 0.000332288 -0.000374068 -0.168794 -0.293636 0.00053233 0.435039 -0.05595)
(-5.40062e-05 8.52988e-06 1.73305e-06 -1.01432e-05 -0.168892 -0.293802 8.09465e-05 0.43528 -0.0559338)
(-5.46505e-06 -1.30527e-05 -7.36802e-06 1.00778e-05 -0.168879 -0.293711 2.29664e-05 0.435146 -0.0559899)
(-3.19016e-07 -1.59574e-06 -5.95539e-07 1.33394e-06 -0.168877 -0.293695 1.73071e-05 0.435123 -0.0559962)
(-3.99308e-07 8.17752e-07 6.28626e-07 -6.76207e-07 -0.168879 -0.2937 1.33348e-05 0.435129 -0.0559923)
(-4.21738e-07 6.35335e-07 4.81582e-07 -5.50314e-07 -0.168881 -0.293704 9.39473e-06 0.435136 -0.055989)
(-3.2049e-07 3.74729e-07 3.0068e-07 -3.31663e-07 -0.168881 -0.293706 6.34862e-06 0.435139 -0.0559868)
(-2.24802e-07 2.32126e-07 1.89957e-07 -2.06592e-07 -0.168882 -0.293708 4.18687e-06 0.435141 -0.0559855)
(-1.55985e-07 1.44869e-07 1.18635e-07 -1.29094e-07 -0.168883 -0.293709 2.68825e-06 0.435143 -0.0559846)
(-1.10527e-07 8.63743e-08 7.06904e-08 -7.70475e-08 -0.168883 -0.29371 1.64346e-06 0.435144 -0.0559841)
(-8.34654e-08 4.55308e-08 3.72878e-08 -4.06474e-08 -0.168883 -0.29371 8.84028e-07 0.435144 -0.0559838)
(-7.09827e-08 1.42358e-08 1.1676e-08 -1.27219e-08 -0.168883 -0.29371 2.7884e-07 0.435144 -0.0559836)
(-7.09929e-08 -1.4098e-08 -1.15304e-08 1.25707e-08 -0.168883 -0.29371 -2.7792e-07 0.435144 -0.0559836)
(-8.34952e-08 -4.54119e-08 -3.71623e-08 4.05171e-08 -0.168883 -0.29371 -8.83271e-07 0.435144 -0.0559838)
(-1.10573e-07 -8.62948e-08 -7.06067e-08 7.69608e-08 -0.168883 -0.29371 -1.64301e-06 0.435144 -0.0559841)
(-1.56042e-07 -1.4485e-07 -1.18614e-07 1.29074e-07 -0.168883 -0.293709 -2.68821e-06 0.435143 -0.0559846)
(-2.24863e-07 -2.32178e-07 -1.9001e-07 2.06648e-07 -0.168882 -0.293708 -4.18729e-06 0.435141 -0.0559855)
(-3.20547e-07 -3.74852e-07 -3.00805e-07 3.31795e-07 -0.168881 -0.293706 -6.3495e-06 0.435139 -0.0559868)
(-4.2179e-07 -6.35535e-07 -4.81783e-07 5.50527e-07 -0.168881 -0.293704 -9.39603e-06 0.435136 -0.055989)
(-3.9934e-07 -8.18047e-07 -6.28919e-07 6.76513e-07 -0.168879 -0.2937 -1.33365e-05 0.435129 -0.0559923)
(-3.18978e-07 1.59544e-06 5.95233e-07 -1.33364e-06 -0.168877 -0.293695 -1.73089e-05 0.435123 -0.0559962)
(-5.46486e-06 1.30529e-05 7.36821e-06 -1.0078e-05 -0.168879 -0.293711 -2.29678e-05 0.435146 -0.0559899)
(-5.40058e-05 -8.52837e-06 -1.73136e-06 1.01417e-05 -0.168892 -0.293802 -8.09463e-05 0.43528 -0.0559338)
(-0.000319253 -0.000477538 -0.000332285 0.000374065 -0.168794 -0.293636 -0.000532327 0.435039 -0.05595)
(-0.00194199 -0.00250004 -0.00206275 0.00182411 -0.167152 -0.28982 -0.00304087 0.429425 -0.0581138)
(-0.0168652 -0.00365258 0.00289301 0.00259063 -0.157145 -0.27297 -0.0217723 0.404446 -0.0685201)
(-0.0858704 -0.00383038 0.106207 0.00443924 -0.147997 -0.260752 -0.20317 0.385082 -0.0235984)
(-0.0723002 0.00194268 -0.103818 -0.00205679 -0.0989391 -0.0800434 0.19738 0.2172 -0.128834)
(-0.0164754 0.00214694 -0.00427208 -0.000798937 -0.103829 -0.0833831 0.0204371 0.227588 -0.175056)
(-0.00181622 0.00154043 0.000988179 -0.00067312 -0.109911 -0.0884705 0.00204765 0.24168 -0.171302)
(-0.000205574 0.000321006 0.000121185 -0.000177906 -0.11111 -0.0896709 0.000289026 0.245186 -0.170586)
(-2.6218e-05 4.43099e-06 -2.55443e-06 -9.71799e-06 -0.111149 -0.0897262 6.89642e-05 0.245339 -0.170625)
(-4.17921e-06 -1.05095e-05 -1.73361e-06 4.79655e-06 -0.111125 -0.0896973 2.90471e-05 0.24524 -0.170647)
(-1.08334e-06 -1.47462e-06 -2.98232e-09 7.96553e-07 -0.111122 -0.0896922 1.81149e-05 0.245221 -0.170648)
(-5.5345e-07 5.06971e-07 1.62394e-07 -3.95197e-07 -0.111123 -0.0896936 1.27032e-05 0.245225 -0.170647)
(-3.97193e-07 4.0511e-07 1.18972e-07 -3.59819e-07 -0.111125 -0.089695 8.85622e-06 0.245228 -0.170646)
(-2.92046e-07 2.28562e-07 7.8081e-08 -2.27285e-07 -0.111125 -0.0896958 6.00505e-06 0.24523 -0.170645)
(-2.07258e-07 1.38827e-07 5.02502e-08 -1.4336e-07 -0.111126 -0.0896963 3.96871e-06 0.245231 -0.170644)
(-1.44643e-07 8.63724e-08 3.14595e-08 -8.994e-08 -0.111126 -0.0896966 2.55138e-06 0.245232 -0.170644)
(-1.02766e-07 5.14394e-08 1.87668e-08 -5.38486e-08 -0.111126 -0.0896968 1.56161e-06 0.245232 -0.170644)
(-7.78099e-08 2.70746e-08 9.91282e-09 -2.84668e-08 -0.111126 -0.0896969 8.40789e-07 0.245233 -0.170644)
(-6.62985e-08 8.45219e-09 3.10197e-09 -8.92128e-09 -0.111126 -0.089697 2.65297e-07 0.245233 -0.170644)
(-6.63068e-08 -8.38603e-09 -3.07893e-09 8.79974e-09 -0.111126 -0.089697 -2.64546e-07 0.245233 -0.170644)
(-7.78334e-08 -2.70169e-08 -9.89358e-09 2.83632e-08 -0.111126 -0.0896969 -8.40174e-07 0.245233 -0.170644)
(-1.02802e-07 -5.14003e-08 -1.87546e-08 5.37808e-08 -0.111126 -0.0896968 -1.56125e-06 0.245232 -0.170644)
(-1.44687e-07 -8.63634e-08 -3.14568e-08 8.99234e-08 -0.111126 -0.0896966 -2.55136e-06 0.245232 -0.170644)
(-2.07304e-07 -1.38855e-07 -5.0258e-08 1.43402e-07 -0.111126 -0.0896963 -3.96907e-06 0.245231 -0.170644)
(-2.92089e-07 -2.28626e-07 -7.8099e-08 2.27384e-07 -0.111125 -0.0896958 -6.00579e-06 0.24523 -0.170645)
(-3.9723e-07 -4.05217e-07 -1.19e-07 3.59976e-07 -0.111125 -0.089695 -8.8573e-06 0.245228 -0.170646)
(-5.53476e-07 -5.07136e-07 -1.62431e-07 3.95411e-07 -0.111123 -0.0896936 -1.27046e-05 0.245225 -0.170647)
(-1.08334e-06 1.47445e-06 2.94368e-09 -7.96356e-07 -0.111122 -0.0896922 -1.81164e-05 0.245221 -0.170648)
(-4.17917e-06 1.05096e-05 1.73359e-06 -4.79669e-06 -0.111125 -0.0896973 -2.90486e-05 0.24524 -0.170647)
(-2.62178e-05 -4.43011e-06 2.55443e-06 9.71705e-06 -0.111149 -0.0897262 -6.89651e-05 0.245339 -0.170625)
(-0.000205573 -0.000321004 -0.000121185 0.000177905 -0.11111 -0.0896709 -0.000289025 0.245186 -0.170586)
(-0.00181622 -0.00154043 -0.000988178 0.00067312 -0.109911 -0.0884705 -0.00204764 0.24168 -0.171302)
(-0.0164754 -0.00214694 0.00427208 0.000798936 -0.103829 -0.0833831 -0.020437 0.227588 -0.175056)
(-0.0723002 -0.00194267 0.103818 0.00205678 -0.0989391 -0.0800434 -0.19738 0.2172 -0.128834)
(-0.0762299 -0.001036 -0.104565 0.00333681 -0.0580177 -0.00941465 0.198551 0.125852 -0.153481)
(-0.0165885 0.00145817 -0.00457843 0.000276149 -0.0605724 -0.0111707 0.0204323 0.132917 -0.202211)
(-0.00181778 0.00104395 0.000805199 -3.02396e-06 -0.0637508 -0.0116892 0.00187975 0.141752 -0.200141)
(-0.000186573 0.000230001 8.11556e-05 -3.49479e-05 -0.0644884 -0.0118498 0.000207671 0.144094 -0.199793)
(-1.74656e-05 5.45954e-06 -3.55368e-06 -5.01307e-06 -0.0644994 -0.0118598 6.07309e-05 0.144221 -0.19985)
(-3.36214e-06 -7.71864e-06 -5.79316e-07 1.21372e-06 -0.0644765 -0.0118554 3.11601e-05 0.144154 -0.199863)
(-1.35737e-06 -1.25296e-06 1.37565e-07 2.86977e-07 -0.0644732 -0.0118545 1.84429e-05 0.14414 -0.199863)
(-6.30582e-07 3.2717e-07 7.87345e-08 -1.92524e-07 -0.0644741 -0.0118547 1.23096e-05 0.144142 -0.199862)
(-3.88156e-07 2.82543e-07 5.22093e-08 -1.94489e-07 -0.0644747 -0.0118549 8.49925e-06 0.144144 -0.199862)
(-2.77198e-07 1.56671e-07 3.73037e-08 -1.30515e-07 -0.0644751 -0.0118551 5.76729e-06 0.144145 -0.199861)
(-1.97333e-07 9.36767e-08 2.45968e-08 -8.40626e-08 -0.0644753 -0.0118551 3.81544e-06 0.144146 -0.199861)
(-1.38083e-07 5.79775e-08 1.53587e-08 -5.32168e-08 -0.0644755 -0.0118552 2.45457e-06 0.144146 -0.19986)
(-9.82323e-08 3.44366e-08 9.13642e-09 -3.20688e-08 -0.0644755 -0.0118552 1.50343e-06 0.144147 -0.19986)
(-7.448e-08 1.8083e-08 4.82631e-09 -1.70213e-08 -0.0644756 -0.0118552 8.09955e-07 0.144147 -0.19986)
(-6.35294e-08 5.63347e-09 1.5083e-09 -5.34771e-09 -0.0644756 -0.0118552 2.55617e-07 0.144147 -0.19986)
(-6.3536e-08 -5.60223e-09 -1.50745e-09 5.25916e-09 -0.0644756 -0.0118552 -2.55018e-07 0.144147 -0.19986)
(-7.4499e-08 -1.80551e-08 -4.82608e-09 1.69467e-08 -0.0644756 -0.0118552 -8.09468e-07 0.144147 -0.19986)
(-9.82611e-08 -3.44172e-08 -9.13673e-09 3.20208e-08 -0.0644755 -0.0118552 -1.50315e-06 0.144147 -0.19986)
(-1.38118e-07 -5.79736e-08 -1.5359e-08 5.32043e-08 -0.0644755 -0.0118552 -2.45457e-06 0.144146 -0.19986)
(-1.9737e-07 -9.36925e-08 -2.45967e-08 8.40891e-08 -0.0644753 -0.0118551 -3.81576e-06 0.144146 -0.199861)
(-2.77233e-07 -1.56708e-07 -3.7303e-08 1.30579e-07 -0.0644751 -0.0118551 -5.76792e-06 0.144145 -0.199861)
(-3.88185e-07 -2.82607e-07 -5.22061e-08 1.94587e-07 -0.0644747 -0.0118549 -8.50016e-06 0.144144 -0.199862)
(-6.30607e-07 -3.27272e-07 -7.87228e-08 1.92646e-07 -0.0644741 -0.0118547 -1.23107e-05 0.144142 -0.199862)
(-1.3574e-06 1.25285e-06 -1.37555e-07 -2.86875e-07 -0.0644732 -0.0118545 -1.84442e-05 0.14414 -0.199863)
(-3.36218e-06 7.71874e-06 5.79227e-07 -1.21375e-06 -0.0644765 -0.0118554 -3.11616e-05 0.144154 -0.199863)
(-1.74655e-05 -5.45896e-06 3.55325e-06 5.01276e-06 -0.0644994 -0.0118598 -6.07324e-05 0.144221 -0.19985)
(-0.000186572 -0.00023 -8.11563e-05 3.49474e-05 -0.0644884 -0.0118498 -0.000207671 0.144094 -0.199793)
(-0.00181778 -0.00104395 -0.000805198 3.02363e-06 -0.0637508 -0.0116892 -0.00187974 0.141752 -0.200141)
(-0.0165885 -0.00145817 0.00457843 -0.00027615 -0.0605724 -0.0111707 -0.0204323 0.132917 -0.202211)
(-0.0762299 0.001036 0.104565 -0.00333682 -0.0580177 -0.00941465 -0.198551 0.125852 -0.153481)
(-0.0818805 -0.00281485 -0.108156 0.00643668 -0.0353689 0.00554498 0.205352 0.0766877 -0.15429)
(-0.0171433 0.00100031 -0.00472699 0.00074602 -0.0374335 0.00352803 0.0211205 0.0813671 -0.205599)
(-0.00187844 0.000757233 0.000852366 0.000233598 -0.0393498 0.00400942 0.00207184 0.0875731 -0.20367)
(-0.000205971 0.000171282 8.70655e-05 3.3028e-05 -0.0398423 0.00408816 0.000222006 0.0892518 -0.20335)
(-1.89857e-05 6.81584e-06 -3.67695e-06 -4.06551e-07 -0.0398517 0.00408884 5.79359e-05 0.0893693 -0.203413)
(-3.1192e-06 -5.27263e-06 -6.76519e-07 -5.22187e-07 -0.0398332 0.00408742 3.0901e-05 0.0893257 -0.203426)
(-1.36458e-06 -9.97741e-07 1.32107e-07 -8.18471e-08 -0.0398301 0.00408722 1.8346e-05 0.0893147 -0.203426)
(-6.49743e-07 2.06042e-07 8.34515e-08 -1.10697e-07 -0.0398306 0.00408725 1.20566e-05 0.0893158 -0.203425)
(-3.84792e-07 2.00439e-07 5.52293e-08 -1.08601e-07 -0.0398311 0.00408728 8.27268e-06 0.0893175 -0.203424)
(-2.6996e-07 1.11639e-07 3.89114e-08 -7.91017e-08 -0.0398313 0.0040873 5.60851e-06 0.0893184 -0.203424)
(-1.91799e-07 6.60092e-08 2.54625e-08 -5.28041e-08 -0.0398315 0.00408731 3.71065e-06 0.089319 -0.203423)
(-1.34244e-07 4.05769e-08 1.58197e-08 -3.39326e-08 -0.0398316 0.00408731 2.38764e-06 0.0893193 -0.203423)
(-9.55266e-08 2.40039e-08 9.37841e-09 -2.06422e-08 -0.0398316 0.00408732 1.46291e-06 0.0893195 -0.203423)
(-7.24657e-08 1.25656e-08 4.94584e-09 -1.10213e-08 -0.0398317 0.00408732 7.88383e-07 0.0893196 -0.203423)
(-6.18425e-08 3.90486e-09 1.54563e-09 -3.4756e-09 -0.0398317 0.00408732 2.48825e-07 0.0893197 -0.203423)
(-6.18479e-08 -3.89261e-09 -1.54213e-09 3.40448e-09 -0.0398317 0.00408732 -2.48356e-07 0.0893197 -0.203423)
(-7.24811e-08 -1.2554e-08 -4.94297e-09 1.09619e-08 -0.0398317 0.00408732 -7.88005e-07 0.0893196 -0.203423)
(-9.55501e-08 -2.39953e-08 -9.37658e-09 2.06043e-08 -0.0398316 0.00408732 -1.4627e-06 0.0893195 -0.203423)
(-1.34273e-07 -4.0576e-08 -1.58193e-08 3.39218e-08 -0.0398316 0.00408731 -2.38766e-06 0.0893193 -0.203423)
(-1.91829e-07 -6.60188e-08 -2.54638e-08 5.2822e-08 -0.0398315 0.00408731 -3.71093e-06 0.089319 -0.203423)
(-2.6999e-07 -1.1166e-07 -3.89142e-08 7.91464e-08 -0.0398313 0.0040873 -5.60905e-06 0.0893184 -0.203424)
(-3.84817e-07 -2.00478e-07 -5.52316e-08 1.08666e-07 -0.0398311 0.00408728 -8.27346e-06 0.0893175 -0.203424)
(-6.49768e-07 -2.06107e-07 -8.34492e-08 1.10768e-07 -0.0398306 0.00408725 -1.20575e-05 0.0893158 -0.203425)
(-1.36462e-06 9.97678e-07 -1.32107e-07 8.19015e-08 -0.0398301 0.00408722 -1.83472e-05 0.0893147 -0.203426)
(-3.11925e-06 5.2727e-06 6.76444e-07 5.22213e-07 -0.0398332 0.00408742 -3.09025e-05 0.0893257 -0.203426)
(-1.89856e-05 -6.81548e-06 3.67662e-06 4.06592e-07 -0.0398517 0.00408884 -5.79374e-05 0.0893693 -0.203413)
(-0.000205971 -0.000171282 -8.70661e-05 -3.30279e-05 -0.0398423 0.00408816 -0.000222006 0.0892518 -0.20335)
(-0.00187844 -0.000757233 -0.000852366 -0.000233599 -0.0393498 0.00400942 -0.00207184 0.0875731 -0.20367)
(-0.0171433 -0.00100031 0.00472699 -0.000746021 -0.0374335 0.00352803 -0.0211205 0.0813671 -0.205599)
(-0.0818805 0.00281485 0.108156 -0.00643668 -0.0353689 0.00554499 -0.205352 0.0766877 -0.15429)
(-0.0860929 -0.00312592 -0.11259 0.0066916 -0.0221761 0.00487461 0.213795 0.0481278 -0.152242)
(-0.0178291 0.000662005 -0.00488554 0.000865994 -0.0237001 0.00288916 0.0220734 0.0508576 -0.20593)
(-0.00196038 0.000562185 0.000917225 0.00026249 -0.0250603 0.00335825 0.00234877 0.0554338 -0.203908)
(-0.000233374 0.000129615 9.70396e-05 5.26063e-05 -0.0254133 0.00343888 0.000273294 0.0566834 -0.203569)
(-2.41757e-05 7.29434e-06 -3.70181e-06 2.5947e-06 -0.0254256 0.00344005 5.93245e-05 0.056789 -0.203635)
(-3.2972e-06 -3.40014e-06 -9.02996e-07 -1.01831e-06 -0.0254123 0.00343849 2.97176e-05 0.0567622 -0.203649)
(-1.27507e-06 -7.48846e-07 1.04384e-07 -2.77483e-07 -0.0254097 0.00343824 1.79835e-05 0.0567543 -0.203649)
(-6.35933e-07 1.27224e-07 9.16454e-08 -9.18584e-08 -0.02541 0.00343826 1.18591e-05 0.0567549 -0.203648)
(-3.81837e-07 1.42877e-07 6.17353e-08 -7.25649e-08 -0.0254103 0.00343828 8.11456e-06 0.0567561 -0.203648)
(-2.66038e-07 8.13433e-08 4.25009e-08 -5.62508e-08 -0.0254105 0.0034383 5.49285e-06 0.0567568 -0.203647)
(-1.883e-07 4.78385e-08 2.75588e-08 -3.89769e-08 -0.0254106 0.0034383 3.63231e-06 0.0567573 -0.203647)
(-1.31651e-07 2.91818e-08 1.70694e-08 -2.54502e-08 -0.0254106 0.00343831 2.33697e-06 0.0567575 -0.203647)
(-9.36501e-08 1.71697e-08 1.00991e-08 -1.56244e-08 -0.0254107 0.00343831 1.432e-06 0.0567577 -0.203647)
(-7.10467e-08 8.95314e-09 5.31881e-09 -8.38981e-09 -0.0254107 0.00343831 7.71845e-07 0.0567578 -0.203647)
(-6.06442e-08 2.7745e-09 1.66155e-09 -2.65524e-09 -0.0254107 0.00343831 2.43601e-07 0.0567578 -0.203647)
(-6.06485e-08 -2.77179e-09 -1.6566e-09 2.59223e-09 -0.0254107 0.00343831 -2.43249e-07 0.0567578 -0.203647)
(-7.1059e-08 -8.94983e-09 -5.31443e-09 8.33738e-09 -0.0254107 0.00343831 -7.71565e-07 0.0567578 -0.203647)
(-9.36691e-08 -1.71668e-08 -1.0096e-08 1.55909e-08 -0.0254107 0.00343831 -1.43185e-06 0.0567577 -0.203647)
(-1.31674e-07 -2.91822e-08 -1.70686e-08 2.54398e-08 -0.0254106 0.00343831 -2.33701e-06 0.0567575 -0.203647)
(-1.88325e-07 -4.78444e-08 -2.75611e-08 3.89906e-08 -0.0254106 0.0034383 -3.63256e-06 0.0567573 -0.203647)
(-2.66064e-07 -8.13562e-08 -4.2506e-08 5.62861e-08 -0.0254105 0.0034383 -5.49333e-06 0.0567568 -0.203647)
(-3.81861e-07 -1.42901e-07 -6.17423e-08 7.26141e-08 -0.0254103 0.00343828 -8.11524e-06 0.0567561 -0.203648)
(-6.3596e-07 -1.27266e-07 -9.16524e-08 9.19062e-08 -0.02541 0.00343826 -1.186e-05 0.0567549 -0.203648)
(-1.27511e-06 7.48805e-07 -1.04395e-07 2.77518e-07 -0.0254097 0.00343824 -1.79847e-05 0.0567543 -0.203649)
(-3.29724e-06 3.40019e-06 9.02949e-07 1.01837e-06 -0.0254123 0.00343849 -2.9719e-05 0.0567622 -0.203649)
(-2.41756e-05 -7.2941e-06 3.70163e-06 -2.59454e-06 -0.0254256 0.00344005 -5.93259e-05 0.056789 -0.203635)
(-0.000233373 -0.000129615 -9.70399e-05 -5.26061e-05 -0.0254133 0.00343888 -0.000273293 0.0566834 -0.203569)
(-0.00196038 -0.000562185 -0.000917224 -0.00026249 -0.0250603 0.00335825 -0.00234876 0.0554338 -0.203908)
(-0.0178291 -0.000662005 0.00488554 -0.000865994 -0.0237001 0.00288916 -0.0220734 0.0508576 -0.20593)
(-0.0860929 0.00312592 0.11259 -0.0066916 -0.0221761 0.00487461 -0.213795 0.0481279 -0.152242)
(-0.0887949 -0.00261143 -0.116472 0.00542092 -0.014021 0.00257825 0.221192 0.0304743 -0.151203)
(-0.0184292 0.000423473 -0.00503027 0.000790419 -0.0149557 0.000995331 0.0230144 0.0318441 -0.206747)
(-0.00204112 0.000414602 0.00096231 0.000224467 -0.0160033 0.00131328 0.0026024 0.0352108 -0.204662)
(-0.00025795 9.82128e-05 0.000103426 5.02741e-05 -0.0162686 0.00136265 0.000329011 0.0361495 -0.204315)
(-2.97106e-05 7.00727e-06 -3.75388e-06 3.94037e-06 -0.0162824 0.00136294 6.29524e-05 0.0362408 -0.204384)
(-3.69363e-06 -2.08829e-06 -1.03895e-06 -9.19052e-07 -0.0162736 0.00136209 2.84769e-05 0.0362252 -0.2044)
(-1.17929e-06 -5.35044e-07 8.49978e-08 -3.38957e-07 -0.0162715 0.00136194 1.75172e-05 0.0362198 -0.2044)
(-6.08759e-07 7.88707e-08 9.28194e-08 -9.34258e-08 -0.0162717 0.00136194 1.16787e-05 0.0362202 -0.2044)
(-3.7767e-07 1.02411e-07 6.29891e-08 -5.9547e-08 -0.0162719 0.00136194 7.98842e-06 0.036221 -0.204399)
(-2.63243e-07 6.02523e-08 4.29272e-08 -4.65603e-08 -0.016272 0.00136194 5.39912e-06 0.0362216 -0.204399)
(-1.85638e-07 3.54393e-08 2.76953e-08 -3.29827e-08 -0.0162721 0.00136194 3.56758e-06 0.0362219 -0.204398)
(-1.29574e-07 2.14488e-08 1.71086e-08 -2.17787e-08 -0.0162721 0.00136193 2.29468e-06 0.0362221 -0.204398)
(-9.21145e-08 1.25375e-08 1.01033e-08 -1.34521e-08 -0.0162722 0.00136193 1.40603e-06 0.0362222 -0.204398)
(-6.98718e-08 6.50766e-09 5.3148e-09 -7.24999e-09 -0.0162722 0.00136193 7.57902e-07 0.0362223 -0.204398)
(-5.9646e-08 2.01101e-09 1.65895e-09 -2.2994e-09 -0.0162722 0.00136193 2.39188e-07 0.0362223 -0.204398)
(-5.96493e-08 -2.0114e-09 -1.65571e-09 2.24181e-09 -0.0162722 0.00136193 -2.3894e-07 0.0362223 -0.204398)
(-6.98814e-08 -6.50716e-09 -5.31172e-09 7.202e-09 -0.0162722 0.00136193 -7.57709e-07 0.0362223 -0.204398)
(-9.21296e-08 -1.25365e-08 -1.01009e-08 1.34211e-08 -0.0162722 0.00136193 -1.40594e-06 0.0362222 -0.204398)
(-1.29593e-07 -2.14496e-08 -1.7108e-08 2.17686e-08 -0.0162721 0.00136193 -2.29474e-06 0.0362221 -0.204398)
(-1.8566e-07 -3.54433e-08 -2.76974e-08 3.29939e-08 -0.0162721 0.00136194 -3.56782e-06 0.0362219 -0.204398)
(-2.63265e-07 -6.02608e-08 -4.29319e-08 4.65903e-08 -0.016272 0.00136194 -5.39953e-06 0.0362216 -0.204399)
(-3.77693e-07 -1.02427e-07 -6.2996e-08 5.95876e-08 -0.0162719 0.00136194 -7.98903e-06 0.036221 -0.204399)
(-6.08788e-07 -7.88989e-08 -9.28285e-08 9.34625e-08 -0.0162717 0.00136194 -1.16795e-05 0.0362202 -0.2044)
(-1.17933e-06 5.35016e-07 -8.50112e-08 3.38983e-07 -0.0162715 0.00136194 -1.75183e-05 0.0362198 -0.2044)
(-3.69366e-06 2.08832e-06 1.03892e-06 9.19104e-07 -0.0162736 0.00136209 -2.84783e-05 0.0362252 -0.2044)
(-2.97105e-05 -7.00713e-06 3.7538e-06 -3.94022e-06 -0.0162824 0.00136294 -6.29537e-05 0.0362408 -0.204384)
(-0.00025795 -9.82126e-05 -0.000103426 -5.0274e-05 -0.0162686 0.00136265 -0.000329011 0.0361495 -0.204315)
(-0.00204111 -0.000414602 -0.00096231 -0.000224467 -0.0160033 0.00131328 -0.0026024 0.0352108 -0.204662)
(-0.0184292 -0.000423473 0.00503027 -0.000790419 -0.0149557 0.00099533 -0.0230144 0.0318441 -0.206747)
(-0.0887949 0.00261143 0.116472 -0.00542092 -0.014021 0.00257825 -0.221192 0.0304743 -0.151203)
(-0.090463 -0.00187426 -0.119323 0.00381474 -0.00886158 0.00125185 0.226629 0.0192803 -0.150919)
(-0.0188684 0.000265554 -0.00513854 0.000627258 -0.00934023 0.000148345 0.0237976 0.0198547 -0.207746)
(-0.00210841 0.000299613 0.000990688 0.000176086 -0.0101521 0.000351135 0.0028071 0.0222744 -0.205639)
(-0.000277479 7.37815e-05 0.000106972 4.13122e-05 -0.0103564 0.000379167 0.000376915 0.0229743 -0.205294)
(-3.44143e-05 6.28706e-06 -3.81333e-06 4.14858e-06 -0.0103701 0.000379044 6.72794e-05 0.0230507 -0.205367)
(-4.15306e-06 -1.21821e-06 -1.10268e-06 -6.41951e-07 -0.0103645 0.000378643 2.75196e-05 0.0230423 -0.205383)
(-1.10994e-06 -3.66566e-07 7.44574e-08 -3.2164e-07 -0.010363 0.000378577 1.70566e-05 0.0230386 -0.205384)
(-5.80051e-07 5.09361e-08 9.06614e-08 -9.52326e-08 -0.010363 0.000378562 1.15066e-05 0.0230389 -0.205383)
(-3.72464e-07 7.43105e-08 6.16096e-08 -5.43598e-08 -0.0103632 0.000378552 7.87877e-06 0.0230396 -0.205382)
(-2.60726e-07 4.53756e-08 4.18352e-08 -4.1444e-08 -0.0103633 0.000378545 5.31817e-06 0.02304 -0.205382)
(-1.83343e-07 2.68105e-08 2.69077e-08 -2.9562e-08 -0.0103633 0.00037854 3.51115e-06 0.0230402 -0.205382)
(-1.27744e-07 1.61083e-08 1.6578e-08 -1.96447e-08 -0.0103634 0.000378537 2.25753e-06 0.0230404 -0.205382)
(-9.07443e-08 9.34828e-09 9.77069e-09 -1.21779e-08 -0.0103634 0.000378535 1.38312e-06 0.0230405 -0.205381)
(-6.88161e-08 4.82798e-09 5.13384e-09 -6.57684e-09 -0.0103634 0.000378533 7.45569e-07 0.0230406 -0.205381)
(-5.87459e-08 1.48843e-09 1.60089e-09 -2.08774e-09 -0.0103634 0.000378533 2.35279e-07 0.0230406 -0.205381)
(-5.87483e-08 -1.48749e-09 -1.60051e-09 2.03606e-09 -0.0103634 0.000378533 -2.35126e-07 0.0230406 -0.205381)
(-6.88232e-08 -4.82651e-09 -5.13311e-09 6.53365e-09 -0.0103634 0.000378533 -7.45455e-07 0.0230406 -0.205381)
(-9.07558e-08 -9.34674e-09 -9.76972e-09 1.21498e-08 -0.0103634 0.000378535 -1.38309e-06 0.0230405 -0.205381)
(-1.2776e-07 -1.61086e-08 -1.65779e-08 1.96351e-08 -0.0103634 0.000378537 -2.25761e-06 0.0230404 -0.205382)
(-1.83361e-07 -2.68137e-08 -2.69091e-08 2.95713e-08 -0.0103633 0.00037854 -3.51136e-06 0.0230402 -0.205382)
(-2.60745e-07 -4.53825e-08 -4.18382e-08 4.14694e-08 -0.0103633 0.000378545 -5.31854e-06 0.02304 -0.205382)
(-3.72486e-07 -7.4323e-08 -6.16144e-08 5.43938e-08 -0.0103632 0.000378552 -7.8793e-06 0.0230396 -0.205382)
(-5.80081e-07 -5.09579e-08 -9.06689e-08 9.52622e-08 -0.010363 0.000378562 -1.15074e-05 0.0230389 -0.205383)
(-1.10998e-06 3.66542e-07 -7.44698e-08 3.21658e-07 -0.010363 0.000378577 -1.70576e-05 0.0230386 -0.205384)
(-4.15308e-06 1.21822e-06 1.10266e-06 6.41982e-07 -0.0103645 0.000378643 -2.75209e-05 0.0230423 -0.205383)
(-3.44142e-05 -6.28698e-06 3.81328e-06 -4.1485e-06 -0.0103701 0.000379044 -6.72807e-05 0.0230507 -0.205367)
(-0.000277478 -7.37813e-05 -0.000106973 -4.13121e-05 -0.0103564 0.000379168 -0.000376914 0.0229743 -0.205294)
(-0.00210841 -0.000299613 -0.000990688 -0.000176086 -0.0101521 0.000351135 -0.00280709 0.0222744 -0.205639)
(-0.0188684 -0.000265554 0.00513854 -0.000627257 -0.00934023 0.000148344 -0.0237976 0.0198547 -0.207746)
(-0.090463 0.00187426 0.119322 -0.00381474 -0.00886158 0.00125185 -0.226629 0.0192803 -0.150919)
(-0.0914895 -0.00122666 -0.121208 0.00245981 -0.00559052 0.000658988 0.230226 0.0121609 -0.150891)
(-0.0191569 0.000165371 -0.00521041 0.00045102 -0.00579114 -5.20575e-05 0.0243791 0.0123391 -0.208541)
(-0.0021583 0.000211371 0.00100847 0.000133163 -0.00640287 7.57861e-05 0.00296461 0.0140309 -0.206433)
(-0.000292338 5.46063e-05 0.000109008 3.20834e-05 -0.00656071 9.23576e-05 0.00041478 0.0145446 -0.206093)
(-3.81014e-05 5.38038e-06 -3.85866e-06 3.77007e-06 -0.0065734 9.2193e-05 7.14223e-05 0.0146068 -0.206169)
(-4.58768e-06 -6.61411e-07 -1.1324e-06 -3.82246e-07 -0.00656998 9.19985e-05 2.68878e-05 0.0146028 -0.206186)
(-1.06995e-06 -2.41377e-07 6.8634e-08 -2.70283e-07 -0.0065689 9.19653e-05 1.66559e-05 0.0146005 -0.206186)
(-5.55303e-07 3.53976e-08 8.79815e-08 -9.14096e-08 -0.00656891 9.19507e-05 1.13465e-05 0.0146007 -0.206186)
(-3.66912e-07 5.48509e-08 5.97427e-08 -5.04228e-08 -0.00656902 9.19405e-05 7.78093e-06 0.0146012 -0.206185)
(-2.58283e-07 3.4707e-08 4.05118e-08 -3.72752e-08 -0.00656908 9.19333e-05 5.24704e-06 0.0146016 -0.206185)
(-1.81279e-07 2.06555e-08 2.59952e-08 -2.65687e-08 -0.00656911 9.19282e-05 3.46136e-06 0.0146018 -0.206184)
(-1.26097e-07 1.23336e-08 1.59744e-08 -1.7722e-08 -0.00656913 9.19248e-05 2.2246e-06 0.0146019 -0.206184)
(-8.9501e-08 7.10633e-09 9.39644e-09 -1.10137e-08 -0.00656914 9.19226e-05 1.36275e-06 0.014602 -0.206184)
(-6.78538e-08 3.65178e-09 4.93169e-09 -5.95601e-09 -0.00656915 9.19213e-05 7.34577e-07 0.014602 -0.206184)
(-5.79235e-08 1.12424e-09 1.53644e-09 -1.89108e-09 -0.00656915 9.19208e-05 2.31793e-07 0.014602 -0.206184)
(-5.79251e-08 -1.11927e-09 -1.53858e-09 1.84659e-09 -0.00656915 9.19207e-05 -2.3172e-07 0.014602 -0.206184)
(-6.78586e-08 -3.64702e-09 -4.93303e-09 5.91872e-09 -0.00656915 9.19213e-05 -7.3453e-07 0.014602 -0.206184)
(-8.95093e-08 -7.10267e-09 -9.39675e-09 1.09892e-08 -0.00656914 9.19226e-05 -1.36275e-06 0.014602 -0.206184)
(-1.26109e-07 -1.23329e-08 -1.59746e-08 1.77133e-08 -0.00656913 9.19248e-05 -2.22469e-06 0.0146019 -0.206184)
(-1.81293e-07 -2.06586e-08 -2.5996e-08 2.65759e-08 -0.00656911 9.19282e-05 -3.46156e-06 0.0146018 -0.206184)
(-2.583e-07 -3.47141e-08 -4.05133e-08 3.72959e-08 -0.00656908 9.19333e-05 -5.24737e-06 0.0146016 -0.206185)
(-3.66934e-07 -5.4863e-08 -5.97454e-08 5.04502e-08 -0.00656902 9.19405e-05 -7.78141e-06 0.0146012 -0.206185)
(-5.55335e-07 -3.54172e-08 -8.79868e-08 9.14322e-08 -0.00656891 9.19507e-05 -1.13472e-05 0.0146007 -0.206186)
(-1.06999e-06 2.41354e-07 -6.86447e-08 2.70293e-07 -0.0065689 9.19653e-05 -1.66569e-05 0.0146005 -0.206186)
(-4.58769e-06 6.61404e-07 1.13238e-06 3.82253e-07 -0.00656998 9.19985e-05 -2.68891e-05 0.0146028 -0.206186)
(-3.81013e-05 -5.38035e-06 3.85863e-06 -3.77005e-06 -0.0065734 9.2193e-05 -7.14235e-05 0.0146068 -0.206169)
(-0.000292337 -5.46063e-05 -0.000109008 -3.20835e-05 -0.00656071 9.23577e-05 -0.000414779 0.0145446 -0.206093)
(-0.0021583 -0.000211371 -0.00100847 -0.000133162 -0.00640287 7.57863e-05 -0.00296461 0.0140309 -0.206433)
(-0.0191569 -0.00016537 0.00521041 -0.000451019 -0.00579114 -5.20582e-05 -0.024379 0.0123391 -0.208541)
(-0.0914895 0.00122666 0.121208 -0.00245981 -0.00559052 0.000658988 -0.230226 0.0121609 -0.150891)
(-0.0921224 -0.000758612 -0.122377 0.00150279 -0.00352471 0.000386943 0.232456 0.00764912 -0.150912)
(-0.0193337 0.000103085 -0.00525518 0.000301605 -0.00358447 -5.15115e-05 0.0247766 0.00766103 -0.209066)
(-0.0021922 0.0001457 0.00101957 9.80749e-05 -0.00402915 2.77326e-05 0.00308247 0.00881435 -0.206965)
(-0.000303357 3.96744e-05 0.000110254 2.43561e-05 -0.00414974 3.79772e-05 0.000443791 0.00918416 -0.206631)
(-4.09074e-05 4.43248e-06 -3.88516e-06 3.17727e-06 -0.00416101 3.78914e-05 7.50074e-05 0.00923348 -0.20671)
(-4.96113e-06 -3.16694e-07 -1.14821e-06 -1.97668e-07 -0.00415902 3.7785e-05 2.65107e-05 0.00923214 -0.206726)
(-1.05178e-06 -1.52249e-07 6.49071e-08 -2.1202e-07 -0.00415827 3.77646e-05 1.63317e-05 0.00923073 -0.206727)
(-5.36079e-07 2.66652e-08 8.56997e-08 -8.23679e-08 -0.00415827 3.77528e-05 1.12035e-05 0.00923093 -0.206727)
(-3.61637e-07 4.11657e-08 5.81244e-08 -4.56122e-08 -0.00415834 3.77443e-05 7.6945e-06 0.00923131 -0.206726)
(-2.55955e-07 2.68396e-08 3.93798e-08 -3.28993e-08 -0.00415838 3.77384e-05 5.18508e-06 0.00923158 -0.206726)
(-1.79433e-07 1.61029e-08 2.52162e-08 -2.33748e-08 -0.00415841 3.77342e-05 3.41796e-06 0.00923175 -0.206725)
(-1.24633e-07 9.56833e-09 1.54583e-08 -1.56324e-08 -0.00415843 3.77314e-05 2.19578e-06 0.00923185 -0.206725)
(-8.83911e-08 5.4769e-09 9.07617e-09 -9.7357e-09 -0.00415843 3.77296e-05 1.34486e-06 0.00923191 -0.206725)
(-6.69916e-08 2.80175e-09 4.75873e-09 -5.27066e-09 -0.00415844 3.77285e-05 7.24915e-07 0.00923195 -0.206725)
(-5.71854e-08 8.6264e-10 1.48138e-09 -1.67335e-09 -0.00415844 3.7728e-05 2.28729e-07 0.00923196 -0.206725)
(-5.71863e-08 -8.52206e-10 -1.48543e-09 1.63682e-09 -0.00415844 3.7728e-05 -2.28723e-07 0.00923196 -0.206725)
(-6.69946e-08 -2.79247e-09 -4.76162e-09 5.23994e-09 -0.00415844 3.77285e-05 -7.24925e-07 0.00923195 -0.206725)
(-8.83969e-08 -5.47029e-09 -9.0774e-09 9.71535e-09 -0.00415843 3.77296e-05 -1.34491e-06 0.00923191 -0.206725)
(-1.24642e-07 -9.56639e-09 -1.54586e-08 1.56247e-08 -0.00415843 3.77314e-05 -2.19588e-06 0.00923185 -0.206725)
(-1.79445e-07 -1.61063e-08 -2.52164e-08 2.33798e-08 -0.00415841 3.77342e-05 -3.41815e-06 0.00923175 -0.206725)
(-2.5597e-07 -2.68479e-08 -3.938e-08 3.29149e-08 -0.00415838 3.77384e-05 -5.18538e-06 0.00923158 -0.206726)
(-3.61659e-07 -4.11791e-08 -5.81252e-08 4.56325e-08 -0.00415834 3.77443e-05 -7.69494e-06 0.00923131 -0.206726)
(-5.36112e-07 -2.66854e-08 -8.57032e-08 8.23829e-08 -0.00415827 3.77528e-05 -1.12042e-05 0.00923093 -0.206727)
(-1.05182e-06 1.52224e-07 -6.49165e-08 2.1202e-07 -0.00415827 3.77646e-05 -1.63326e-05 0.00923073 -0.206727)
(-4.96115e-06 3.16678e-07 1.14819e-06 1.97653e-07 -0.00415902 3.7785e-05 -2.6512e-05 0.00923214 -0.206726)
(-4.09073e-05 -4.43246e-06 3.88512e-06 -3.1773e-06 -0.00416101 3.78914e-05 -7.50087e-05 0.00923348 -0.20671)
(-0.000303357 -3.96743e-05 -0.000110254 -2.43562e-05 -0.00414974 3.79772e-05 -0.000443791 0.00918416 -0.206631)
(-0.00219219 -0.000145699 -0.00101957 -9.80749e-05 -0.00402915 2.77325e-05 -0.00308247 0.00881435 -0.206965)
(-0.0193337 -0.000103085 0.00525518 -0.000301604 -0.00358447 -5.15118e-05 -0.0247766 0.00766103 -0.209066)
(-0.0921224 0.000758614 0.122377 -0.00150279 -0.00352471 0.000386943 -0.232456 0.00764913 -0.150912)
(-0.0925122 -0.000454282 -0.123075 0.000890651 -0.0022254 0.000239294 0.233787 0.00479666 -0.150931)
(-0.0194378 6.44835e-05 -0.00528225 0.000191349 -0.00222588 -2.49719e-05 0.0250329 0.00475506 -0.209387)
(-0.00221375 9.83179e-05 0.00102637 7.02461e-05 -0.00253906 2.30613e-05 0.00316828 0.00552402 -0.207296)
(-0.000311317 2.82337e-05 0.00011104 1.82002e-05 -0.00262962 2.94813e-05 0.000465678 0.00578467 -0.206968)
(-4.30122e-05 3.52386e-06 -3.89711e-06 2.55856e-06 -0.00263936 2.94678e-05 7.79447e-05 0.00582273 -0.207048)
(-5.26553e-06 -1.13375e-07 -1.15776e-06 -8.477e-08 -0.0026383 2.94045e-05 2.63022e-05 0.00582285 -0.207065)
(-1.04689e-06 -9.11131e-08 6.2199e-08 -1.59415e-07 -0.0026378 2.93898e-05 1.60803e-05 0.00582205 -0.207066)