/*--------------------------------*- C++ -*----------------------------------*\
| =========                 |                                                 |
| \\      /  F ield         | OpenFOAM: The Open Source CFD Toolbox           |
|  \\    /   O peration     | Version:  2106                                  |
|   \\  /    A nd           | Website:  www.openfoam.com                      |
|    \\/     M anipulation  |                                                 |
\*---------------------------------------------------------------------------*/
FoamFile
{
    version     2.0;
    format      ascii;
    arch        "LSB;label=32;scalar=64";
    class       volVectorField;
    location    "849";
    object      D;
}
// * * * * * * * * * * * * * * * * * * * * * * * * * * * * * * * * * * * * * //

dimensions      [0 1 0 0 0 0 0];

internalField   nonuniform List<vector> 
9000
(
(-0.0451791 -0.00347482 -0.0605906)
(-0.0119686 -0.0150727 -0.0479237)
(0.00165522 -0.0106262 -0.0368298)
(0.00522047 0.00150718 -0.0156393)
(-0.00190859 0.00883008 0.000237392)
(-0.0131568 0.00527383 -0.00332696)
(-0.0172507 -0.00655372 -0.0233073)
(-0.00945958 -0.0175032 -0.0428758)
(0.00415091 -0.0201977 -0.0464705)
(0.0131576 -0.0135821 -0.0331966)
(0.0125339 -0.00442649 -0.0151158)
(0.00546343 0.000662102 -0.00463186)
(-0.00126657 0.00026834 -0.00536485)
(-0.00383943 -0.00331546 -0.0124739)
(-0.00392293 -0.00765459 -0.01967)
(-0.00288805 -0.0113416 -0.0261952)
(0.000915221 -0.0119429 -0.0295672)
(0.00616192 -0.00720712 -0.0245794)
(0.00810162 0.00040029 -0.0130048)
(0.00303459 0.00551141 -0.00273399)
(-0.00702565 0.00369862 -0.00520304)
(-0.0131898 -0.00374573 -0.0223999)
(-0.00852415 -0.0107887 -0.0415086)
(0.00324322 -0.012989 -0.0463319)
(0.00962827 -0.0113026 -0.0342385)
(0.00581185 -0.00854582 -0.022407)
(-0.000817917 -0.00984339 -0.0212517)
(-0.00123283 -0.0141628 -0.0281636)
(0.00789361 -0.0123439 -0.0276056)
(0.0206755 0.00386806 -0.0150757)
(-0.0397449 0.0172874 -0.0489918)
(-0.0113389 0.00427115 -0.0337194)
(-0.000420889 0.00464117 -0.0257335)
(0.00268936 0.00900746 -0.0116094)
(-0.00263532 0.0104192 -0.000757593)
(-0.0113824 0.00798071 -0.00283652)
(-0.0144048 0.00335647 -0.0161917)
(-0.00776063 -0.000417085 -0.0294112)
(0.00352406 -0.0018245 -0.0316352)
(0.0109246 -8.78245e-05 -0.0226424)
(0.0104404 0.00230326 -0.0103435)
(0.00466011 0.00329854 -0.00311593)
(-0.000780154 0.00306545 -0.00369532)
(-0.002748 0.00209727 -0.00848981)
(-0.0028321 0.000433187 -0.0130862)
(-0.00224807 -0.000804299 -0.0173915)
(0.000558662 -5.37838e-05 -0.0200523)
(0.00476745 0.00308843 -0.017415)
(0.0065414 0.00659975 -0.0099566)
(0.00263209 0.00798557 -0.00281623)
(-0.0056039 0.00710786 -0.0041623)
(-0.0108124 0.00629284 -0.0162352)
(-0.0069224 0.00666709 -0.0299782)
(0.00303351 0.0064082 -0.033269)
(0.00828336 0.00308985 -0.0236589)
(0.00491214 0.00119102 -0.0151516)
(-0.000624007 -0.000860916 -0.0144298)
(-0.000952016 -0.00293205 -0.0194827)
(0.00652484 -0.00154969 -0.0190693)
(0.016703 0.00902555 -0.0113877)
(-0.0325996 0.0279772 -0.0338663)
(-0.0107872 0.0139142 -0.021369)
(-0.00262982 0.0122496 -0.0157404)
(-5.38185e-05 0.0126981 -0.00603186)
(-0.00353772 0.0112908 0.00122898)
(-0.00954117 0.00946882 -0.000365497)
(-0.0113282 0.00849881 -0.00974044)
(-0.00593475 0.00833374 -0.0189427)
(0.00276734 0.00759808 -0.0204759)
(0.00836763 0.00690646 -0.0143476)
(0.00798944 0.00587144 -0.0059758)
(0.00365825 0.0047558 -0.00112263)
(-0.000271389 0.00458574 -0.00166067)
(-0.00153532 0.00488129 -0.00488554)
(-0.00162588 0.00455815 -0.00783595)
(-0.00149999 0.00458648 -0.0107177)
(0.000296135 0.00602826 -0.012651)
(0.00337979 0.00838966 -0.0109641)
(0.0048797 0.00985179 -0.00584751)
(0.00218651 0.00943902 -0.000818865)
(-0.00392655 0.0090975 -0.00156708)
(-0.00789813 0.0116531 -0.0097991)
(-0.00492093 0.0156633 -0.0191383)
(0.00261418 0.01629 -0.0211704)
(0.00635014 0.0105622 -0.0145703)
(0.00355598 0.00645234 -0.00913848)
(-0.000666461 0.00411654 -0.00931026)
(-0.000648874 0.00320542 -0.0134516)
(0.00549283 0.00401309 -0.0128563)
(0.0124075 0.0112728 -0.00552901)
(-0.0246069 0.0305399 -0.0186676)
(-0.0102121 0.0166809 -0.0104351)
(-0.00476767 0.0143404 -0.00686827)
(-0.00274265 0.0132719 -0.000590905)
(-0.00444649 0.0110087 0.00378665)
(-0.00770765 0.00961553 0.00242136)
(-0.00823682 0.0101797 -0.00390991)
(-0.00411418 0.0114267 -0.0099913)
(0.00196545 0.011003 -0.0110487)
(0.00573012 0.00941352 -0.00720175)
(0.00542798 0.00707728 -0.00200434)
(0.00257687 0.0052007 0.000851009)
(0.000213741 0.00507235 0.000315048)
(-0.000331122 0.00579806 -0.00167168)
(-0.000426513 0.00597508 -0.00334175)
(-0.000726816 0.00652221 -0.00509769)
(0.000113093 0.00818593 -0.00635396)
(0.00207176 0.0100822 -0.00518077)
(0.00323772 0.0107025 -0.00180155)
(0.00173087 0.00969795 0.00154738)
(-0.00218082 0.00968164 0.00123639)
(-0.00480022 0.0134216 -0.00376051)
(-0.00278627 0.0184795 -0.00930319)
(0.00208 0.0192127 -0.0102531)
(0.00417648 0.0130682 -0.00652243)
(0.00202912 0.00846526 -0.00380167)
(-0.000810745 0.0062815 -0.00488405)
(-0.00033798 0.00593066 -0.00841268)
(0.00464696 0.00614291 -0.00764026)
(0.00811335 0.0110417 0.000363574)
(-0.0166753 0.0273358 -0.00544641)
(-0.00951283 0.0150108 -0.00140729)
(-0.00660413 0.012893 0.000412017)
(-0.00509923 0.0116992 0.00396308)
(-0.00519951 0.00972233 0.00609371)
(-0.00598015 0.00868523 0.00491977)
(-0.00537446 0.0095403 0.00103738)
(-0.00244523 0.0109162 -0.00256361)
(0.00120498 0.0106012 -0.00325372)
(0.00326274 0.00900627 -0.00124081)
(0.00301386 0.00665534 0.00137737)
(0.00153696 0.00487885 0.0025929)
(0.000628236 0.00480601 0.0020448)
(0.000743037 0.00548228 0.00102963)
(0.00064992 0.00565141 0.000371452)
(-1.47768e-05 0.00625323 -0.000471552)
(-1.87236e-05 0.00783233 -0.00115496)
(0.000913377 0.00939682 -0.000354765)
(0.00175148 0.00987242 0.00165272)
(0.00131608 0.00897557 0.00367601)
(-0.000552696 0.00914809 0.00374389)
(-0.00189565 0.0127177 0.0013878)
(-0.000796198 0.0172173 -0.00108496)
(0.00154304 0.0176001 -0.00119892)
(0.00211823 0.0122793 0.000207766)
(0.000586498 0.00823753 0.000744863)
(-0.000966062 0.00652186 -0.00109749)
(-4.71436e-05 0.00643034 -0.00417103)
(0.0039227 0.0061125 -0.00330715)
(0.00418251 0.00904591 0.00538649)
(-0.00950487 0.0207217 0.00476113)
(-0.0086571 0.0109671 0.00535671)
(-0.00797484 0.00961738 0.00583232)
(-0.00692136 0.00896745 0.00735114)
(-0.00568964 0.00781017 0.00788507)
(-0.00443936 0.00708533 0.0069168)
(-0.00292637 0.00757348 0.00491147)
(-0.00103831 0.00842526 0.00317026)
(0.00054575 0.0081181 0.00275818)
(0.00114778 0.00695385 0.00337893)
(0.000938573 0.00526564 0.00403107)
(0.000630012 0.0040567 0.00400984)
(0.000943431 0.0040629 0.00344583)
(0.00160623 0.00446148 0.00313818)
(0.00152249 0.00436185 0.00322063)
(0.000571749 0.00475868 0.00307249)
(-0.000125272 0.00608065 0.00282925)
(-4.67501e-05 0.00739671 0.0033189)
(0.000520691 0.00807653 0.00430166)
(0.000981933 0.0076223 0.00536031)
(0.000824605 0.00788285 0.00576476)
(0.000541301 0.0105764 0.00539566)
(0.000850638 0.0137028 0.0051634)
(0.00108402 0.0135704 0.00560305)
(0.000421317 0.00961968 0.00538158)
(-0.000597764 0.00664594 0.00432874)
(-0.00107224 0.00557297 0.00193274)
(0.000212807 0.00562662 -0.000816001)
(0.00331249 0.00488589 5.73299e-05)
(0.000880372 0.00605791 0.00918435)
(-0.00351319 0.01269 0.0116953)
(-0.00768064 0.00612323 0.00989732)
(-0.00882319 0.00579361 0.00946721)
(-0.00812392 0.00590165 0.00958269)
(-0.00587776 0.00568116 0.00910924)
(-0.00312585 0.00521586 0.00836894)
(-0.000979748 0.00507472 0.0077039)
(5.46295e-05 0.00516431 0.00725914)
(1.06567e-05 0.00480937 0.00704909)
(-0.000530808 0.00422081 0.00667885)
(-0.000703854 0.00344929 0.00594419)
(-9.60141e-05 0.00297621 0.00507636)
(0.00115429 0.00308482 0.00449912)
(0.00222844 0.00314882 0.00465846)
(0.00215666 0.00269811 0.00522652)
(0.0010009 0.00277891 0.00556138)
(-0.000223526 0.00377279 0.00562393)
(-0.000791002 0.00491153 0.00585178)
(-0.000412985 0.00590908 0.00613138)
(0.00074515 0.00598802 0.00655647)
(0.00189179 0.00625565 0.00724924)
(0.00238825 0.00782855 0.00824641)
(0.00206674 0.00935577 0.00946475)
(0.000736533 0.00872363 0.0102099)
(-0.000814424 0.0061893 0.00900805)
(-0.00144228 0.00441205 0.00691695)
(-0.00108948 0.00403345 0.00417639)
(0.000455909 0.00422493 0.00165024)
(0.00283168 0.00318397 0.00247175)
(-0.00166806 0.00276506 0.0116978)
(0.00111639 0.00473147 0.0155975)
(-0.00665594 0.00153032 0.0125356)
(-0.00918158 0.00224517 0.01161)
(-0.00872576 0.00308566 0.0108358)
(-0.0057805 0.00367633 0.00982201)
(-0.00204423 0.00340306 0.00932285)
(0.000463636 0.00262355 0.00954623)
(0.000832032 0.00195784 0.00993689)
(-0.000406458 0.0015094 0.00986117)
(-0.00177301 0.00147524 0.00882953)
(-0.00190507 0.00160496 0.00719774)
(-0.000631392 0.00183786 0.00581025)
(0.0012735 0.0020683 0.00522823)
(0.00262117 0.00184507 0.00565944)
(0.00255754 0.00107632 0.00650078)
(0.00126992 0.00083182 0.00713401)
(-0.000321181 0.00149628 0.00738515)
(-0.00132866 0.00251432 0.00740502)
(-0.00105826 0.00379865 0.00724465)
(0.000601952 0.00435725 0.00730323)
(0.00264958 0.00457296 0.00822588)
(0.00364905 0.00506929 0.0100715)
(0.00285723 0.00515141 0.0120951)
(0.000496779 0.00410818 0.0129616)
(-0.00160232 0.00275444 0.011278)
(-0.00193938 0.00208128 0.00860405)
(-0.000993729 0.00235914 0.00570393)
(0.000713001 0.00273152 0.00333636)
(0.00249543 0.00151191 0.00406554)
(-0.00345751 -0.000292384 0.0130488)
(0.00436254 -0.00214477 0.0169753)
(-0.00565844 -0.00221847 0.0137063)
(-0.00913102 -0.000583975 0.0126294)
(-0.0088138 0.000853349 0.01136)
(-0.00544867 0.00203179 0.0101348)
(-0.001177 0.00188285 0.0098728)
(0.00145758 0.000589032 0.0106409)
(0.001324 -0.000700486 0.011519)
(-0.000727756 -0.00127626 0.0115096)
(-0.00263207 -0.000871491 0.0100694)
(-0.00271419 -7.84172e-06 0.00791854)
(-0.000992203 0.000795671 0.00625583)
(0.00132292 0.00115753 0.00568315)
(0.00282138 0.00074469 0.00624414)
(0.00275641 -0.000247772 0.00720023)
(0.00139627 -0.000765841 0.00798576)
(-0.000419623 -0.000392436 0.00833416)
(-0.00168693 0.000536086 0.00820361)
(-0.00145512 0.00201047 0.00779593)
(0.000536179 0.00292811 0.00768065)
(0.00313482 0.00306499 0.00876776)
(0.00440289 0.00268682 0.0110693)
(0.00328332 0.001665 0.0134374)
(0.000341069 0.000318045 0.0142982)
(-0.00201616 -0.000200129 0.0124636)
(-0.00212706 1.55339e-05 0.00955471)
(-0.000774732 0.000856199 0.00664438)
(0.00101716 0.00146779 0.00441135)
(0.00230316 0.000183943 0.00502604)
(-0.00458655 -0.00274164 0.0134617)
(0.00634062 -0.00734955 0.0164464)
(-0.00474187 -0.00487649 0.0138431)
(-0.00876762 -0.00253217 0.0128811)
(-0.00850375 -0.000667865 0.0114072)
(-0.00494637 0.000876818 0.0101798)
(-0.000495556 0.000798768 0.0101343)
(0.00208223 -0.000841044 0.0112058)
(0.00157474 -0.00257821 0.0123241)
(-0.00098216 -0.00329317 0.012314)
(-0.00318623 -0.00260947 0.0106463)
(-0.00320882 -0.00124582 0.00824489)
(-0.00120875 -4.63078e-05 0.00647281)
(0.00132643 0.000442243 0.00592621)
(0.00287657 -4.92306e-05 0.00652477)
(0.00279719 -0.00114996 0.00748912)
(0.001408 -0.00186157 0.00832122)
(-0.000517669 -0.0017255 0.00870197)
(-0.00190181 -0.000883329 0.00847279)
(-0.00165652 0.000674398 0.00794746)
(0.000527941 0.00181664 0.00778397)
(0.00340259 0.00188139 0.00897174)
(0.00476264 0.000896311 0.0114556)
(0.0034298 -0.000845623 0.0138781)
(0.000240097 -0.00239 0.0146507)
(-0.00214935 -0.0024178 0.0128537)
(-0.00206412 -0.00158684 0.00995458)
(-0.000433417 -0.000303296 0.00714565)
(0.00139318 0.000598619 0.00505729)
(0.00223917 -0.00063994 0.00555309)
(-0.00522837 -0.00437117 0.0132073)
(0.00728029 -0.0106369 0.0146431)
(-0.00392883 -0.00642772 0.0133233)
(-0.00818142 -0.00362521 0.0126666)
(-0.00790894 -0.00148959 0.0111936)
(-0.00433567 0.000248417 0.0100861)
(3.20385e-05 0.000209504 0.010226)
(0.00242089 -0.00161357 0.0114402)
(0.00163124 -0.00362668 0.0126308)
(-0.00119929 -0.00447137 0.0125632)
(-0.00351969 -0.0036752 0.0107854)
(-0.00347298 -0.00205337 0.00830686)
(-0.0013166 -0.000632206 0.00652728)
(0.00130469 -3.531e-05 0.00602081)
(0.00283378 -0.000503121 0.00660565)
(0.00272561 -0.00160104 0.00751524)
(0.00133542 -0.00242074 0.00832405)
(-0.000614368 -0.0024685 0.00869415)
(-0.00201029 -0.00172661 0.00840463)
(-0.0017153 -0.000178568 0.00784497)
(0.000559967 0.00107119 0.0077071)
(0.00351375 0.00109645 0.00894264)
(0.00484605 -0.000224206 0.0114353)
(0.00338287 -0.00234293 0.0137521)
(0.000168327 -0.00398884 0.0143905)
(-0.00209225 -0.00381694 0.0127175)
(-0.00181338 -0.00264856 0.00997883)
(2.19731e-05 -0.0010448 0.00734936)
(0.00185562 0.000175606 0.0054391)
(0.00228917 -0.000910639 0.00583055)
(-0.00555776 -0.00510848 0.0125624)
(0.00747203 -0.0120205 0.012151)
(-0.00321405 -0.0069913 0.0124488)
(-0.00744493 -0.00399446 0.0122186)
(-0.00712524 -0.00170631 0.0108857)
(-0.00366823 0.000111111 0.00996508)
(0.000435826 0.000102909 0.0102568)
(0.00254653 -0.00176441 0.011509)
(0.00153706 -0.00390762 0.0126621)
(-0.00140498 -0.00486444 0.0124972)
(-0.00371107 -0.00410492 0.0106756)
(-0.00358491 -0.00244035 0.00821752)
(-0.00135042 -0.000948391 0.00648427)
(0.00127251 -0.000267965 0.00602517)
(0.00273331 -0.000631266 0.00657457)
(0.00258254 -0.00163302 0.00739933)
(0.00120581 -0.00248365 0.00814357)
(-0.000710085 -0.00266964 0.00847592)
(-0.00204552 -0.00204543 0.00814987)
(-0.00167713 -0.000582991 0.00760778)
(0.000620266 0.000686146 0.00753403)
(0.00352576 0.00072082 0.00878068)
(0.00475757 -0.000695827 0.0111859)
(0.0032175 -0.00291798 0.0133232)
(0.000108408 -0.00459045 0.0138113)
(-0.00192137 -0.00443774 0.0122845)
(-0.00143263 -0.00317477 0.00977916)
(0.000578919 -0.00136201 0.00738058)
(0.00241036 0.000178458 0.00569144)
(0.00244851 -0.000657371 0.00601349)
(-0.00569288 -0.00499626 0.0117831)
(0.00720934 -0.0116964 0.00947145)
(-0.00257381 -0.00675414 0.0114467)
(-0.0066101 -0.00381629 0.0117016)
(-0.00622812 -0.00145678 0.0106008)
(-0.00298279 0.000378222 0.00990336)
(0.000741486 0.000411837 0.010317)
(0.00251811 -0.00138867 0.0115405)
(0.00133005 -0.00354698 0.0125869)
(-0.00161866 -0.00460072 0.0123017)
(-0.0038267 -0.00399805 0.0104642)
(-0.00361077 -0.00246333 0.00806851)
(-0.00134068 -0.00101671 0.00640204)
(0.00123885 -0.000275685 0.0059899)
(0.00260639 -0.000479184 0.00650061)
(0.00240112 -0.00131439 0.00723307)
(0.00104142 -0.0021337 0.00789245)
(-0.000805977 -0.00242254 0.00817085)
(-0.00203504 -0.00193056 0.00782181)
(-0.00157833 -0.000613307 0.00732678)
(0.000701743 0.000615771 0.00733365)
(0.00348713 0.000714769 0.00857261)
(0.00458007 -0.000605732 0.0108497)
(0.00299327 -0.00273002 0.0127864)
(5.16901e-05 -0.00437926 0.0131294)
(-0.00169514 -0.00439655 0.0117359)
(-0.000970347 -0.00322842 0.00948062)
(0.00122215 -0.00130181 0.0073445)
(0.0030552 0.00054113 0.00591812)
(0.00271367 3.31359e-05 0.00622268)
(-0.00570363 -0.0041741 0.0110862)
(0.00675096 -0.00997746 0.00700503)
(-0.00197643 -0.00592852 0.0104769)
(-0.005711 -0.00327409 0.0112225)
(-0.00527336 -0.000895806 0.0104132)
(-0.00230599 0.000931024 0.00995956)
(0.000970081 0.00102853 0.0104738)
(0.00238177 -0.000621579 0.0116282)
(0.00104217 -0.00271066 0.012527)
(-0.00185262 -0.00384983 0.0121097)
(-0.00391725 -0.00349072 0.0102583)
(-0.00360176 -0.00220999 0.00792824)
(-0.00131183 -0.0008877 0.00632776)
(0.00120832 -0.000102225 0.00595669)
(0.0024751 -0.000112733 0.0064346)
(0.00220621 -0.000734153 0.00708105)
(0.00085941 -0.00147675 0.00764956)
(-0.000902933 -0.00184258 0.00786543)
(-0.0020004 -0.00149433 0.00750111)
(-0.00144657 -0.000365538 0.00706599)
(0.00080021 0.000786804 0.00715728)
(0.00343512 0.00100073 0.00838608)
(0.00437396 -8.26677e-05 0.0105321)
(0.0027551 -0.0019729 0.0122786)
(-3.60227e-06 -0.00356977 0.0124939)
(-0.0014536 -0.00385173 0.0112038)
(-0.000464034 -0.00291286 0.00918083)
(0.00193528 -0.000950303 0.00732326)
(0.00378202 0.00116874 0.00619457)
(0.00307386 0.00103348 0.00654377)
(-0.00563256 -0.00286017 0.0106328)
(0.00630347 -0.00724548 0.00504605)
(-0.00139117 -0.00472854 0.00964338)
(-0.00476953 -0.00253952 0.0108427)
(-0.00430036 -0.000177684 0.0103611)
(-0.00165589 0.00163209 0.0101651)
(0.00113811 0.00181588 0.0107682)
(0.00217314 0.000374167 0.0118314)
(0.000700156 -0.00158758 0.0125614)
(-0.00211215 -0.00280192 0.0120074)
(-0.0040165 -0.00273769 0.0101273)
(-0.00359279 -0.00178514 0.00784171)
(-0.00128148 -0.000632316 0.00629456)
(0.00118256 0.000189183 0.00595593)
(0.00235329 0.000388975 0.00641009)
(0.00201492 8.90636e-06 0.00698407)
(0.000672336 -0.000627526 0.00746459)
(-0.00100103 -0.00105287 0.00761457)
(-0.00195713 -0.000857363 0.00723943)
(-0.00130214 5.52813e-05 0.00686534)
(0.000912003 0.00111037 0.00703772)
(0.00339457 0.0014759 0.00826668)
(0.00417973 0.000720244 0.0103026)
(0.00253445 -0.000853797 0.0118868)
(-5.46807e-05 -0.00238318 0.0119972)
(-0.00122028 -0.00298056 0.0107757)
(5.97416e-05 -0.00235506 0.00894861)
(0.00270219 -0.000416447 0.00737348)
(0.00457974 0.00194821 0.00656977)
(0.00351467 0.00219104 0.00702674)
(-0.00550171 -0.00132824 0.010514)
(0.0060141 -0.00391619 0.00378344)
(-0.000795207 -0.00335909 0.00900358)
(-0.00380155 -0.00176727 0.0105886)
(-0.0033374 0.000549786 0.0104544)
(-0.00104577 0.00233281 0.0105254)
(0.00125733 0.0026156 0.011213)
(0.001919 0.0014178 0.012175)
(0.000326611 -0.000379574 0.0127285)
(-0.00239495 -0.00165579 0.0120377)
(-0.00414101 -0.001901 0.0101063)
(-0.00360304 -0.00130115 0.00783184)
(-0.00126058 -0.00033345 0.00631964)
(0.00116075 0.000521699 0.00600374)
(0.0022479 0.000938617 0.00644377)
(0.00183758 0.000812482 0.00696198)
(0.000488774 0.000298214 0.00736239)
(-0.00109942 -0.00017633 0.00744643)
(-0.001915 -0.000139121 0.00706257)
(-0.00115911 0.000543089 0.00674377)
(0.00103227 0.00149054 0.00699017)
(0.00337743 0.00202328 0.00823667)
(0.00402029 0.0016373 0.0101958)
(0.00235146 0.000417494 0.0116547)
(-9.52437e-05 -0.0010366 0.0116857)
(-0.00100464 -0.00196526 0.0104991)
(0.000584317 -0.00169271 0.00882431)
(0.00350724 0.000180227 0.00752647)
(0.00543578 0.00275476 0.00706688)
(0.00402332 0.00333848 0.00768687)
(-0.00530778 0.000118721 0.0107416)
(0.00596671 -0.00041271 0.00330373)
(-0.000178928 -0.00201215 0.00857521)
(-0.00282181 -0.00109787 0.0104577)
(-0.00240627 0.00114378 0.0106788)
(-0.000487234 0.00287643 0.0110204)
(0.00133426 0.00325462 0.0117906)
(0.00163868 0.00231679 0.0126482)
(-5.84463e-05 0.00070513 0.013026)
(-0.00269032 -0.000612056 0.0122037)
(-0.00429007 -0.001143 0.0101985)
(-0.00363727 -0.000871608 0.00790094)
(-0.00125481 -7.86604e-05 0.00640365)
(0.00113977 0.000811764 0.00609979)
(0.00216007 0.00144445 0.00653542)
(0.00167902 0.00157286 0.00701564)
(0.000314425 0.0011861 0.00734611)
(-0.00119614 0.000668 0.00736581)
(-0.0018785 0.000546324 0.00697371)
(-0.00102626 0.000995249 0.00670174)
(0.00115376 0.00183001 0.00701326)
(0.00338336 0.0025201 0.00829476)
(0.00390275 0.00249853 0.0102131)
(0.00221698 0.00163375 0.0115858)
(-0.000115598 0.000260431 0.0115653)
(-0.000803688 -0.000985081 0.0103861)
(0.00110161 -0.00106501 0.00882101)
(0.00433351 0.00071604 0.00778975)
(0.00633376 0.00345495 0.00768293)
(0.00459446 0.00429897 0.00850352)
(-0.00502479 0.0011778 0.0112459)
(0.00617821 0.00285687 0.00359546)
(0.000450069 -0.000866063 0.0083397)
(-0.00184808 -0.000663091 0.010421)
(-0.00152561 0.00146166 0.0109954)
(7.94958e-06 0.00310046 0.0116021)
(0.00137011 0.00355181 0.012449)
(0.00134544 0.00287332 0.013201)
(-0.000435902 0.00145727 0.0134095)
(-0.0029782 0.000132049 0.0124684)
(-0.00444579 -0.000621088 0.0103762)
(-0.00368642 -0.000606853 0.00803115)
(-0.00126517 4.7097e-05 0.0065305)
(0.00111372 0.000977125 0.00622659)
(0.00208524 0.00181373 0.00666712)
(0.00153946 0.00218587 0.00712677)
(0.000153097 0.00192394 0.00739796)
(-0.0012874 0.00136665 0.00735566)
(-0.00184696 0.00109277 0.00695552)
(-0.000908122 0.00131521 0.00672281)
(0.00126589 0.00203399 0.00708938)
(0.00339955 0.00284535 0.00841562)
(0.00381923 0.00313673 0.0103217)
(0.00213388 0.00259295 0.0116443)
(-0.00010212 0.00130689 0.0116039)
(-0.000602536 -0.00021135 0.0104151)
(0.00161101 -0.000605991 0.00892582)
(0.00516039 0.00106706 0.00814719)
(0.00725019 0.00390845 0.00838685)
(0.00522923 0.00489203 0.00941753)
(-0.00459473 0.00157186 0.0118787)
(0.00659578 0.00552011 0.00455476)
(0.00106436 -8.39649e-05 0.00824243)
(-0.000904388 -0.000589421 0.0104197)
(-0.000713573 0.00135947 0.011336)
(0.000427023 0.00284153 0.0121893)
(0.00136165 0.00332779 0.013096)
(0.00104794 0.00289321 0.0137395)
(-0.000786217 0.00167524 0.0137893)
(-0.00322849 0.000389723 0.0127526)
(-0.00457346 -0.000481526 0.0105796)
(-0.00372758 -0.00060853 0.00818375)
(-0.00128742 -3.11197e-05 0.00666765)
(0.00107316 0.000944521 0.00635002)
(0.00201235 0.00195682 0.00680156)
(0.00141459 0.00254879 0.00725538)
(7.49323e-06 0.00240339 0.00747728)
(-0.0013664 0.0018139 0.00737655)
(-0.00181428 0.00140462 0.00697097)
(-0.000806026 0.00141552 0.00677376)
(0.00135407 0.00201477 0.00718385)
(0.00340011 0.00288792 0.00854894)
(0.00374714 0.00339555 0.0104539)
(0.0020975 0.00310307 0.0117535)
(-3.63726e-05 0.00191256 0.01173)
(-0.00037406 0.00019799 0.010531)
(0.00211867 -0.000437045 0.00910085)
(0.00596131 0.00111489 0.00855766)
(0.00815118 0.00397232 0.00911612)
(0.00592793 0.00494271 0.0103278)
(-0.00391006 0.00107057 0.0124199)
(0.00709726 0.00726156 0.00599257)
(0.00161626 0.000191716 0.0081911)
(-2.27153e-05 -0.000994991 0.01036)
(1.02935e-05 0.000698723 0.0115942)
(0.000756309 0.00194644 0.0126591)
(0.0013025 0.00242129 0.0135935)
(0.000751492 0.00220414 0.0141216)
(-0.00108871 0.00118023 0.0140274)
(-0.00340105 -3.24414e-06 0.012932)
(-0.0046223 -0.000849557 0.0107152)
(-0.00372385 -0.000961608 0.00829757)
(-0.00131239 -0.000369614 0.00676766)
(0.00100415 0.000657399 0.00642146)
(0.00192278 0.00179348 0.00687972)
(0.00129577 0.00256662 0.00733642)
(-0.00011976 0.00252588 0.00751756)
(-0.00142211 0.00191661 0.00736467)
(-0.0017688 0.00140195 0.0069638)
(-0.000718818 0.00122276 0.00680415)
(0.0013995 0.00169881 0.00724333)
(0.00334698 0.00255809 0.00861938)
(0.0036493 0.00314088 0.0105051)
(0.00209605 0.00299211 0.0117925)
(0.000105836 0.00190545 0.0118289)
(-7.78657e-05 0.000106988 0.0106447)
(0.00263767 -0.000657499 0.00928438)
(0.00670223 0.000758926 0.00895461)
(0.00898795 0.00351286 0.00977366)
(0.0066836 0.004294 0.0110886)
(-0.0028204 -0.000485333 0.0125863)
(0.00749991 0.00784779 0.00764456)
(0.00204064 -0.000148838 0.00805396)
(0.000756905 -0.0019764 0.0101058)
(0.000624841 -0.000633515 0.0116172)
(0.00098242 0.000294924 0.0128381)
(0.00118453 0.000715312 0.0137521)
(0.000458288 0.000681602 0.0141535)
(-0.00132196 -0.000159008 0.0139352)
(-0.00344623 -0.00116784 0.0128337)
(-0.00452718 -0.00181385 0.0106542)
(-0.00362542 -0.0017217 0.00828853)
(-0.00132714 -0.000997528 0.00677036)
(0.000887241 8.23407e-05 0.00637943)
(0.00178972 0.00126259 0.00681833)
(0.00117025 0.00216315 0.00727571)
(-0.00022512 0.00221339 0.00742272)
(-0.00143854 0.00160362 0.00722924)
(-0.00169346 0.00102763 0.00685828)
(-0.000642829 0.000685516 0.00674557)
(0.00138015 0.00103792 0.00719516)
(0.0031915 0.00180109 0.00852749)
(0.00347425 0.00227757 0.0103333)
(0.00211151 0.00212695 0.0115937)
(0.000355653 0.00114789 0.0117376)
(0.000340094 -0.000584351 0.0106314)
(0.00318813 -0.00133272 0.00939314)
(0.00734202 -6.67505e-05 0.00924863)
(0.00969262 0.00242392 0.0102256)
(0.00747451 0.00282689 0.011508)
(-0.00115558 -0.00315865 0.0120441)
(0.00758453 0.00715637 0.00918652)
(0.002262 -0.00116217 0.00765967)
(0.00138838 -0.00358251 0.00947459)
(0.00110832 -0.00269147 0.0111999)
(0.00109473 -0.00215935 0.0124995)
(0.000999012 -0.00182447 0.0133322)
(0.000166881 -0.00171565 0.0135902)
(-0.00146409 -0.00239586 0.013271)
(-0.00330721 -0.00315009 0.0122363)
(-0.00421204 -0.00340372 0.0102327)
(-0.00337234 -0.00289889 0.0080515)
(-0.00131707 -0.00190931 0.00660591)
(0.000697122 -0.000785619 0.00614993)
(0.00157895 0.000337989 0.00650871)
(0.0010216 0.00129768 0.0069474)
(-0.000303371 0.00142512 0.00706489)
(-0.00139528 0.000842241 0.00685129)
(-0.00156639 0.000256606 0.00655812)
(-0.000570861 -0.000213981 0.00651175)
(0.00127243 2.32278e-05 0.00694883)
(0.00287641 0.000611229 0.00815265)
(0.00315809 0.000773204 0.00975934)
(0.00212017 0.000439224 0.0109387)
(0.000751356 -0.000435248 0.0112423)
(0.000946034 -0.00191914 0.0103326)
(0.003796 -0.00248227 0.00932408)
(0.0078323 -0.00137929 0.00933136)
(0.0101766 0.000653141 0.0103011)
(0.00825994 0.000485748 0.0113448)
(0.00124971 -0.00688443 0.0104221)
(0.007135 0.00520647 0.0102572)
(0.00220594 -0.00281985 0.00680116)
(0.00182464 -0.00577348 0.00823937)
(0.00144071 -0.0054284 0.0100849)
(0.00108773 -0.00533765 0.0113697)
(0.000738049 -0.0051005 0.0120552)
(-0.000128144 -0.00490041 0.0121415)
(-0.00149464 -0.00545929 0.011744)
(-0.00292555 -0.00587672 0.0108775)
(-0.00359683 -0.00555842 0.00925801)
(-0.00290217 -0.00443737 0.00746815)
(-0.00126886 -0.00305592 0.00619895)
(0.000403983 -0.00191178 0.00564673)
(0.00125162 -0.000948006 0.00582071)
(0.000830854 -8.5698e-06 0.00619558)
(-0.000347425 0.000183892 0.00628616)
(-0.00126932 -0.000336663 0.00608752)
(-0.00136242 -0.000888047 0.00594577)
(-0.000491492 -0.00144371 0.00600093)
(0.0010544 -0.00129738 0.00640251)
(0.00234033 -0.000950107 0.00735861)
(0.00263021 -0.00130913 0.00857379)
(0.00209432 -0.00203258 0.00955976)
(0.00133613 -0.00281372 0.0100812)
(0.00181367 -0.00385498 0.00956162)
(0.00449054 -0.00406392 0.00895851)
(0.00811869 -0.00313371 0.00908017)
(0.0103346 -0.00176449 0.00979623)
(0.00897901 -0.00267691 0.0103093)
(0.00453825 -0.0114328 0.00732952)
(0.00597631 0.00218828 0.0104904)
(0.00181306 -0.00496503 0.00524837)
(0.00202549 -0.00836606 0.00614169)
(0.00160858 -0.00863388 0.00797933)
(0.00096228 -0.00898004 0.00915116)
(0.000396116 -0.00882882 0.00962633)
(-0.000435062 -0.00859154 0.00949397)
(-0.00139867 -0.00908331 0.00903106)
(-0.00225021 -0.00910209 0.00847256)
(-0.00260936 -0.0080894 0.00752232)
(-0.00216134 -0.00619655 0.00642007)
(-0.00117382 -0.00433454 0.00547606)
(-2.25747e-05 -0.00320169 0.00477671)
(0.000769554 -0.0024763 0.0046146)
(0.000579008 -0.00163603 0.00484469)
(-0.000349218 -0.00138753 0.0049094)
(-0.00103833 -0.00180765 0.00478275)
(-0.00105623 -0.00230661 0.00488846)
(-0.000389954 -0.00290169 0.00510319)
(0.000709443 -0.00280308 0.00545375)
(0.00152658 -0.00273169 0.00600422)
(0.00182397 -0.00377091 0.00655094)
(0.00200671 -0.0050787 0.00715307)
(0.0021523 -0.00579556 0.00795828)
(0.00301521 -0.00622972 0.00811707)
(0.00530099 -0.00594996 0.00817348)
(0.00814814 -0.00519863 0.00836974)
(0.0100585 -0.00465734 0.00849146)
(0.00955088 -0.00642733 0.00808045)
(0.00879085 -0.0163454 0.00239437)
(0.00399513 -0.00151318 0.00956134)
(0.00105346 -0.00726136 0.00277828)
(0.00196602 -0.0109707 0.0029235)
(0.0016118 -0.0118548 0.00459848)
(0.000726845 -0.0125847 0.00556653)
(-2.95039e-05 -0.0124874 0.00577362)
(-0.000762607 -0.0122407 0.00535707)
(-0.00117051 -0.0127284 0.00481924)
(-0.00124899 -0.012353 0.00474834)
(-0.00120421 -0.0106383 0.00483167)
(-0.0011193 -0.00793927 0.00480735)
(-0.00103169 -0.00558035 0.00437859)
(-0.000606924 -0.00447929 0.00345534)
(0.000103504 -0.00401564 0.00276075)
(0.000251175 -0.00332598 0.00272354)
(-0.000301917 -0.00302615 0.00276254)
(-0.000685174 -0.00332185 0.0027913)
(-0.000627196 -0.00378781 0.00325698)
(-0.000250891 -0.00439478 0.00371602)
(0.000229756 -0.00428984 0.00401455)
(0.000397415 -0.00446812 0.00396317)
(0.000692573 -0.00623556 0.00347368)
(0.00183793 -0.0082419 0.00341422)
(0.00323162 -0.00896113 0.00457509)
(0.00460516 -0.00872649 0.00580702)
(0.00624985 -0.00790666 0.00686623)
(0.00788278 -0.00733105 0.00709708)
(0.00926173 -0.00766602 0.00618749)
(0.00988305 -0.0102677 0.00434869)
(0.0139705 -0.0208622 -0.00467421)
(0.00117285 -0.005308 0.0072558)
(-5.86635e-05 -0.00914557 -0.000766817)
(0.00164669 -0.0129272 -0.00160806)
(0.00146844 -0.0143387 -0.00025655)
(0.00040023 -0.0153542 0.000434177)
(-0.00053682 -0.0152658 0.000314945)
(-0.00111624 -0.0149873 -0.000464649)
(-0.000816199 -0.0155194 -0.00111554)
(7.40491e-05 -0.0148696 -0.000492597)
(0.000610488 -0.0126382 0.00105706)
(0.000212466 -0.00932518 0.00257557)
(-0.000855187 -0.00656684 0.00288101)
(-0.00135882 -0.00547804 0.00163032)
(-0.000756035 -0.00520331 0.0001673)
(-0.00015842 -0.00464516 -0.000295919)
(-0.000202924 -0.00429419 -0.0002826)
(-0.000203672 -0.00448465 7.84376e-06)
(-6.52474e-05 -0.00498622 0.000958099)
(-6.21975e-05 -0.0056223 0.00177101)
(-0.000379499 -0.00546321 0.00203272)
(-0.0010466 -0.00576037 0.00115472)
(-0.000766995 -0.00810062 -0.000818647)
(0.00158605 -0.0107477 -0.00189113)
(0.00458013 -0.0115896 -0.000302613)
(0.00659379 -0.0108392 0.00249454)
(0.0073404 -0.00959938 0.00498865)
(0.00731471 -0.00918225 0.0052176)
(0.00791251 -0.0102237 0.00275904)
(0.00989546 -0.0133738 -0.00110146)
(0.0198816 -0.0238823 -0.0139884)
(-0.00234252 -0.00842489 0.00357201)
(-0.00145438 -0.00980307 -0.00539558)
(0.0011074 -0.0132518 -0.00747707)
(0.00121821 -0.0150218 -0.00659505)
(1.41213e-05 -0.0161752 -0.00622466)
(-0.0011142 -0.0160157 -0.00673454)
(-0.00149344 -0.0156289 -0.00797084)
(-0.000357181 -0.0161936 -0.00879006)
(0.00165559 -0.0155445 -0.00726415)
(0.00274477 -0.0132975 -0.00378748)
(0.00175757 -0.00991074 -0.000240674)
(-0.000674501 -0.00701982 0.0010166)
(-0.00226459 -0.00584678 -0.0006894)
(-0.00178707 -0.00552228 -0.00318436)
(-0.000641453 -0.00496062 -0.00425164)
(-5.73455e-05 -0.00455487 -0.00426439)
(0.000394971 -0.00473149 -0.00359523)
(0.000623064 -0.00541746 -0.00202513)
(0.000180633 -0.0061735 -0.000727947)
(-0.00109437 -0.00593262 -0.000476323)
(-0.00274585 -0.00606628 -0.00241649)
(-0.00248437 -0.00848249 -0.00635539)
(0.00127781 -0.0114398 -0.00882005)
(0.00615987 -0.0125888 -0.00673192)
(0.00891584 -0.0118458 -0.00182408)
(0.00854208 -0.0106322 0.00259251)
(0.00647879 -0.0103434 0.00279071)
(0.00606905 -0.0115593 -0.00177128)
(0.00955338 -0.0145442 -0.00826958)
(0.0261326 -0.023935 -0.0253466)
(-0.00620817 -0.0100229 -0.00112726)