/*--------------------------------*- C++ -*----------------------------------*\
| =========                 |                                                 |
| \\      /  F ield         | OpenFOAM: The Open Source CFD Toolbox           |
|  \\    /   O peration     | Version:  2106                                  |
|   \\  /    A nd           | Website:  www.openfoam.com                      |
|    \\/     M anipulation  |                                                 |
\*---------------------------------------------------------------------------*/
FoamFile
{
    version     2.0;
    format      ascii;
    arch        "LSB;label=32;scalar=64";
    class       volSymmTensorField;
    location    "849";
    object      epsilon;
}
// * * * * * * * * * * * * * * * * * * * * * * * * * * * * * * * * * * * * * //

dimensions      [0 0 0 0 0 0 0];

internalField   nonuniform List<symmTensor> 
9000
(
(252.505 7.78869 -189.897 390.993 38.8587 -1253)
(70.2514 -0.324718 -115.918 368.565 -10.8402 -1020.64)
(25.7836 -1.56845 13.2473 289.524 -3.96482 -770.197)
(-5.34571 -2.19494 52.0827 139.396 20.2241 -348.6)
(-27.5658 -1.31209 -18.2184 24.0576 31.6306 -24.6069)
(-23.0132 0.885503 -132.067 46.1121 21.7983 -87.2605)
(5.54576 2.13088 -173.548 186.155 -2.28987 -481.393)
(32.1024 1.25465 -94.4821 325.325 -23.0636 -870.692)
(33.9257 -0.880308 43.1762 350.088 -29.546 -936.729)
(12.5745 -2.45958 133.318 255.372 -17.441 -668.351)
(-11.5412 -2.50932 125.789 124.9 -1.32123 -305.351)
(-20.7008 -1.25192 53.7303 46.9581 6.45279 -95.4114)
(-13.9543 0.332478 -13.6043 50.7226 5.48485 -113.035)
(-3.98453 1.12179 -37.955 101.785 -0.703157 -256.646)
(1.42708 1.0808 -38.0617 153.056 -9.37799 -394.694)
(7.25722 0.791789 -28.8484 200.02 -16.5591 -522.042)
(13.575 0.213332 8.51257 226.212 -15.7726 -596.588)
(10.7796 -0.600592 61.2635 194.407 -2.7982 -509.414)
(-4.691 -1.08138 81.5268 114.793 13.8027 -286.148)
(-22.6909 -0.272507 31.5709 41.8254 22.5301 -76.7801)
(-24.3365 1.86019 -69.9642 59.3413 17.7075 -119.771)
(-2.24775 3.48246 -133.509 186.587 7.17008 -471.345)
(24.6495 2.54034 -86.6825 329.768 0.479626 -870.34)
(27.2286 -0.979251 34.0517 366.915 -1.86969 -968.91)
(3.85294 -3.37754 98.9714 270.861 -8.88452 -696.833)
(-15.6693 -2.8272 59.8472 181.045 -9.09644 -443.992)
(-10.567 -1.37964 -7.59118 167.275 -14.5856 -414.617)
(13.0673 0.115629 -14.7778 212.121 -23.6936 -557.185)
(32.8625 1.63162 69.2454 207.089 -19.5576 -569.499)
(71.4211 -1.82674 90.2424 96.9332 25.3941 -319.561)
(221.136 13.8403 -162.647 235.89 213.77 -995.211)
(58.986 -5.05465 -109.511 217.402 87.0455 -748.744)
(21.0424 -12.5167 -13.0522 171.569 79.6637 -556.528)
(-3.32165 -15.4451 19.927 83.9318 92.5614 -248.591)
(-21.1076 -6.87931 -27.7944 18.4551 85.798 -13.1236)
(-17.6542 8.26139 -109.916 31.4624 68.4321 -57.2784)
(5.43259 15.9109 -137.886 112.894 52.2921 -346.538)
(26.8933 9.3324 -73.2939 193.777 44.4084 -633.055)
(28.0278 -4.94147 35.0793 208.469 36.2754 -679.591)
(10.3745 -14.8664 105.285 153.664 37.1886 -483.354)
(-9.39666 -14.5021 100.007 77.2345 36.5551 -216.748)
(-16.8308 -6.19781 44.2125 30.7027 31.049 -61.394)
(-11.1122 2.83099 -7.19903 32.3805 29.7038 -76.2451)
(-3.07793 6.66625 -24.3918 61.4756 30.0639 -180.339)
(0.749889 6.43777 -24.7089 91.5955 24.5333 -277.189)
(5.08615 4.84 -20.8274 119.461 21.5458 -369.059)
(10.5233 0.597978 4.2097 134.784 31.5973 -428.22)
(8.97411 -5.44282 43.8817 116.976 53.8497 -373.27)
(-3.20304 -8.40935 61.8603 70.8862 70.296 -213.144)
(-18.2179 -2.79924 26.2022 29.4571 69.548 -57.0637)
(-20.1667 10.3521 -52.367 40.4917 63.0825 -83.7753)
(-1.97775 19.5131 -103.701 115.491 76.8482 -345.941)
(20.7689 13.5986 -66.6046 198.39 104.423 -645.56)
(22.8086 -5.04185 31.0791 219.593 110.25 -716.291)
(2.81793 -16.2059 81.5333 163.985 63.0546 -502.689)
(-13.361 -11.4226 48.281 112.486 35.59 -317.154)
(-8.79623 -2.52434 -4.96076 104.7 18.1496 -302.597)
(10.7233 1.67325 -10.3513 130.261 9.95577 -417.035)
(26.4826 -0.0347407 54.4458 122.678 17.3331 -420.752)
(54.393 -7.5821 69.1886 55.5354 88.0715 -222.397)
(164.814 17.8482 -132.66 99.3934 290.78 -661.379)
(44.9547 -7.57039 -106.229 93.0733 135.184 -470.847)
(16.1001 -17.2125 -37.823 72.7444 118.887 -335.042)
(-1.36186 -21.0892 -11.2329 31.9831 119.59 -123.308)
(-14.231 -9.21384 -38.5808 4.4209 102.887 32.2887)
(-11.6858 11.6862 -89.5233 12.2612 85.216 -3.06988)
(5.40963 22.2787 -103.333 51.1741 79.7357 -206.601)
(21.1433 12.9987 -52.915 88.8281 83.742 -405.602)
(21.4536 -6.91525 26.362 96.2062 77.023 -438.075)
(7.83315 -20.7741 76.6301 71.2601 69.5534 -304.447)
(-7.06407 -20.4095 72.8416 35.8051 56.3102 -123.294)
(-12.3912 -8.77643 33.4201 14.2662 41.925 -19.8844)
(-7.79034 3.82122 -1.17432 15.0518 40.5206 -33.2522)
(-2.03173 9.0426 -10.9977 27.756 45.158 -102.749)
(0.0529938 8.79986 -11.6482 41.5642 43.4239 -164.769)
(2.88302 6.8073 -12.4283 54.9488 44.8164 -226.423)
(7.31967 1.18151 1.84973 61.7978 59.2253 -268.557)
(6.87534 -7.24117 28.8399 52.4533 82.1204 -231.23)
(-1.78993 -11.6018 43.0898 30.7704 94.1517 -120.852)
(-13.2094 -3.94526 20.5199 12.8429 87.278 -12.037)
(-15.127 14.4971 -33.908 19.3034 82.1119 -27.772)
(-1.49157 27.47 -70.5151 53.4659 110.624 -204.8)
(15.7685 18.9882 -43.5729 88.5934 155.11 -404.675)
(16.9066 -7.40156 25.5104 96.0335 163.992 -446.097)
(1.4127 -22.7791 58.5494 74.8373 101.7 -305.996)
(-10.5249 -15.6455 32.8493 54.5568 62.4747 -190.132)
(-6.30728 -3.13546 -5.03517 53.5681 41.9814 -195.781)
(9.23893 2.22504 -6.12527 66.4703 37.184 -288.73)
(19.5846 -0.991536 45.3474 57.6945 41.9788 -283.213)
(29.1859 -10.6686 49.9918 15.1213 107.408 -95.6574)
(100.781 19.472 -100.637 -4.81055 294.021 -332.321)
(29.7589 -7.37063 -102.334 8.22431 139.597 -221.14)
(11.2042 -17.4605 -59.89 4.82555 120.945 -136.845)
(0.481769 -21.4191 -39.6172 -7.4917 116.769 -4.60599)
(-7.44751 -8.97395 -48.5294 -11.7632 99.2634 84.7187)
(-5.68549 12.7321 -70.4285 -5.87693 84.0794 54.5902)
(5.39022 23.6849 -70.7983 7.81114 84.3317 -78.7759)
(15.3034 13.7032 -33.8548 19.3688 93.0946 -205.616)
(14.7664 -7.36868 17.8332 22.5234 87.7716 -227.188)
(5.19379 -22.0876 49.0583 15.7486 77.7063 -145.823)
(-4.72987 -21.818 46.2321 5.87929 60.1655 -37.1285)
(-7.82136 -9.45851 22.4245 0.922907 43.5139 20.689)
(-4.36199 3.82162 4.13328 1.652 42.3889 7.97857)
(-0.96038 9.22087 1.39759 4.50745 47.9372 -32.9828)
(-0.593541 9.07735 0.488368 8.19945 47.5095 -66.2211)
(0.809409 7.22767 -4.36087 12.5006 50.9751 -102.498)
(4.19787 1.48927 0.43423 13.5306 66.2531 -128.9)
(4.68694 -7.36165 15.577 7.55369 86.4367 -102.589)
(-0.511333 -12.019 25.7193 0.15477 95.8994 -32.113)
(-8.1278 -4.02972 15.0674 -3.47584 87.9218 37.3377)
(-9.79664 15.4447 -16.0298 0.379433 84.8302 30.329)
(-0.908184 29.1077 -37.6815 7.98468 116.84 -72.5334)
(10.3203 19.811 -20.6917 11.6549 162.569 -184.736)
(10.4441 -8.07529 19.2296 9.82541 169.076 -200.753)
(-0.0763171 -23.9302 34.8811 12.8784 109.578 -128.573)
(-7.48083 -16.2256 16.8916 13.3889 70.6009 -74.35)
(-3.55065 -3.02446 -6.11458 18.0399 52.3537 -99.5054)
(8.18656 2.15255 -2.28615 24.1869 50.2206 -176.059)
(12.677 -2.05467 38.437 15.7456 50.5628 -163.284)
(2.51662 -11.7528 32.0989 -16.7016 99.3474 27.5284)
(40.7731 19.078 -69.1632 -73.6364 247.368 -54.5642)
(15.1068 -5.00071 -96.3676 -42.8535 112.512 -20.1142)
(6.62039 -14.5106 -77.4023 -35.4228 97.5772 20.7125)
(2.10693 -18.0482 -62.865 -32.2831 95.9483 91.6748)
(-1.32138 -6.92231 -56.0594 -23.9888 84.6363 130.929)
(-0.262438 12.1196 -53.2157 -18.9765 72.5858 105.136)
(5.30238 21.5874 -42.2107 -19.5465 72.0422 27.0142)
(9.86917 12.3302 -17.2657 -22.5106 78.2606 -43.8874)
(8.56195 -6.75637 10.2616 -21.6367 73.5236 -57.3132)
(2.71331 -20.1431 24.6702 -18.4475 65.9624 -16.6902)
(-2.58866 -19.9308 22.4433 -13.5872 51.9047 34.5649)
(-3.57843 -8.68772 12.3509 -8.57998 38.8222 55.9225)
(-1.19089 3.18892 8.35826 -7.5709 38.2654 43.4663)
(0.0325254 7.89911 11.8243 -10.0244 41.8459 24.306)
(-1.13672 7.88698 10.8031 -12.0992 39.8388 13.2658)
(-1.00296 6.50531 2.63401 -13.2265 42.6531 -2.82173)
(1.39223 1.46382 -0.575034 -15.7896 56.4395 -16.2727)
(2.65531 -6.41436 4.3478 -20.1412 73.4337 1.74865)
(0.604057 -10.5048 10.8327 -19.6946 83.7021 41.499)
(-3.45627 -3.35178 10.4232 -15.5674 78.8425 80.7818)
(-4.8176 14.0769 -0.294147 -13.491 77.4734 81.3921)
(-0.365253 26.0826 -8.77395 -21.3392 103.994 37.3037)
(5.15804 17.3002 -0.731344 -35.8253 139.608 -6.0985)
(4.37165 -7.43844 13.5347 -42.3174 140.576 -4.00166)
(-1.43481 -21.1038 14.208 -25.8636 93.9288 16.1248)
(-4.62644 -14.1689 2.83679 -13.6449 62.8288 22.3017)
(-0.950463 -2.33601 -7.26949 -5.31394 49.7233 -18.6687)
(7.33314 1.75843 0.968015 -2.28027 48.921 -83.3599)
(6.34447 -3.04259 32.6587 -9.42766 44.9413 -65.9433)
(-21.5594 -11.365 16.4404 -37.3786 75.1711 130.088)
(-8.80866 17.3664 -40.7569 -109.843 173.775 152.111)
(2.29505 -1.45752 -88.309 -66.6569 69.9401 125.63)
(2.60361 -9.82124 -89.3145 -53.2456 62.6301 133.237)
(3.42779 -12.698 -79.4942 -43.4816 67.0634 160.305)
(3.72301 -3.95504 -60.3554 -30.3088 64.8149 165.57)
(4.14491 10.5261 -38.4117 -26.0203 55.8512 144.339)
(5.10158 17.4851 -18.9069 -33.4918 50.5607 107.148)
(5.20818 9.78295 -3.92243 -43.1395 50.1747 76.6543)
(3.27914 -5.58228 4.07089 -43.4387 45.572 69.1271)
(0.589235 -16.3651 4.78889 -35.891 42.9302 80.0288)
(-0.776658 -16.1143 2.95758 -24.0454 36.6395 89.0136)
(0.00728745 -7.02572 3.96177 -14.2698 30.3773 83.9662)
(1.46432 2.2763 11.3439 -12.9089 30.6137 71.5969)
(0.86859 5.79447 19.7155 -17.501 30.9063 67.6442)
(-1.55172 5.87319 18.7087 -22.1497 25.7626 72.1718)
(-2.47165 5.0979 8.05712 -26.0574 26.2134 70.9724)
(-0.927749 1.21051 -1.48035 -30.4466 37.2456 67.1676)
(0.968945 -4.89451 -4.5965 -33.6397 51.5112 78.1791)
(1.54302 -7.94756 -0.861926 -29.7251 64.4397 95.9299)
(0.455871 -2.28625 6.9239 -22.4066 64.6762 114.164)
(-0.660949 11.3824 12.3213 -21.6934 64.4667 121.605)
(0.0390494 20.4296 14.0775 -36.6688 80.9159 120.011)
(0.814081 12.9815 14.7285 -58.9616 100.989 124.722)
(-0.643981 -6.08676 9.08427 -66.5735 96.0231 137.518)
(-2.52268 -16.1908 -1.58669 -45.6748 65.2984 123.627)
(-2.24034 -10.6429 -7.95869 -28.6911 45.2605 96.2582)
(1.21586 -1.2273 -7.92678 -18.6631 38.5298 44.1902)
(6.5771 1.37113 3.70008 -16.5406 38.5801 -12.4679)
(1.00135 -3.76786 27.9001 -21.964 31.0464 7.15516)
(-40.986 -10.0927 3.89279 -47.1063 43.3469 205.219)
(-45.3969 14.9916 -17.1241 -119.927 91.8811 285.724)
(-7.965 2.33205 -78.9322 -70.7761 24.9979 219.829)
(-0.664923 -4.6915 -95.6772 -55.2915 26.8444 205.105)
(4.41814 -6.85083 -89.3293 -44.1135 37.5505 202.731)
(7.49711 -0.855063 -61.3344 -31.0038 44.0069 187.746)
(7.34702 8.5269 -26.1708 -27.617 37.7167 171.635)
(4.77071 12.6739 -1.1989 -37.1245 26.4444 162.654)
(1.48561 6.81476 5.99866 -48.5056 18.541 159.254)
(-0.878157 -4.27841 -0.683559 -49.5653 13.8455 156.066)
(-1.07177 -11.973 -10.2539 -41.0895 16.4175 146.447)
(0.652191 -11.5971 -11.7428 -27.4552 18.9439 126.686)
(2.78722 -5.00362 -2.44919 -16.6413 20.2216 104.505)
(3.48668 1.36722 13.1694 -14.9595 21.4245 92.1572)
(1.50355 3.51599 25.0137 -19.623 18.4669 97.7226)
(-1.8413 3.60399 24.0793 -24.6415 10.0104 111.922)
(-3.57028 3.42413 11.7547 -29.4515 7.49466 120.713)
(-2.68786 0.864803 -2.41187 -34.3827 15.3572 123.372)
(-0.284188 -3.20496 -11.2598 -36.6179 27.6007 128.412)
(2.30423 -5.11368 -9.25237 -32.084 43.4212 131.724)
(3.45717 -1.165 4.62211 -24.4879 48.8312 136.777)
(2.46465 8.22405 21.5871 -24.8242 49.1527 150.231)
(0.262426 13.9791 30.3385 -41.3033 54.7016 176.634)
(-2.47758 8.19601 25.3456 -64.1356 58.7917 210.672)
(-4.32175 -4.57701 6.00071 -70.9663 49.07 228.612)
(-3.26821 -10.8223 -12.2121 -51.4893 32.7365 196.069)
(-0.412582 -6.64794 -15.1072 -34.235 23.727 147.748)
(2.84728 0.15409 -7.7334 -24.1037 23.4653 89.1858)
(5.88174 1.23862 6.16983 -21.7133 24.6603 37.7558)
(-3.18596 -4.15886 24.2916 -25.3048 14.6149 57.6068)
(-55.0691 -8.44879 -5.39101 -47.6272 10.3061 252.412)
(-68.9291 12.3669 0.93224 -111.261 14.7932 354.089)
(-15.447 5.71851 -69.2514 -62.5628 -14.1262 271.649)
(-3.10472 0.0121382 -97.2851 -47.8319 -3.51017 244.569)
(5.10162 -1.51368 -93.1075 -37.8622 12.2823 223.882)
(10.0223 1.84715 -59.425 -27.3702 25.2703 198.987)
(9.36621 6.51859 -16.3465 -24.9976 20.9632 188.327)
(4.31439 8.05607 11.3358 -33.6427 4.42504 197.247)
(-1.30514 3.92454 12.7401 -43.986 -10.0792 210.551)
(-3.90756 -3.131 -4.19679 -45.6422 -15.2397 210.414)
(-2.24792 -7.80806 -20.8372 -38.1922 -8.20177 187.489)
(1.71243 -7.26679 -21.9383 -25.9285 2.13273 149.943)
(4.76786 -3.0132 -6.93889 -16.3541 9.97669 118.021)
(4.87884 0.637762 14.0565 -14.4547 12.3229 105.754)
(1.92605 1.47954 28.0201 -18.031 6.96925 116.461)
(-2.02687 1.48911 27.1355 -22.0941 -4.08102 135.658)
(-4.31808 1.79757 13.8305 -26.5856 -9.36034 150.326)
(-3.89787 0.526512 -3.38936 -31.2392 -4.49776 156.766)
(-1.10561 -1.63295 -15.8567 -32.8158 6.36028 157.076)
(2.89592 -2.52581 -14.6738 -29.2396 24.2259 151.823)
(5.56175 -0.202915 3.36363 -22.9494 33.7985 149.742)
(4.57064 5.19537 27.7668 -23.9299 34.0696 168.083)
(0.311473 7.98875 40.6013 -38.563 30.0936 210.956)
(-4.7284 3.84134 31.6094 -57.6807 20.9554 259.654)
(-6.68932 -3.28072 4.06816 -63.0418 7.891 279.128)
(-3.65423 -6.0267 -18.3247 -47.9207 2.30093 238.88)
(0.912891 -2.86442 -18.8333 -32.9739 2.74568 179.501)
(3.97857 1.66798 -6.48883 -23.8294 8.31197 118.405)
(5.23374 1.46927 8.75772 -20.6785 11.2872 70.5075)
(-6.25576 -4.24987 21.987 -22.5002 -0.198095 89.1804)
(-64.0176 -6.82591 -11.6337 -41.3003 -19.147 274.853)
(-80.813 9.74026 13.2654 -90.6077 -49.0456 369.608)
(-20.2403 8.34837 -60.1314 -48.0511 -43.5357 291.767)
(-4.73304 3.85622 -95.2069 -35.8301 -25.5884 260.543)
(5.52352 2.79436 -92.037 -28.1514 -6.32067 229.945)
(11.4552 3.90012 -55.3142 -20.9964 10.5554 201.963)
(10.3594 4.72546 -8.64055 -19.5322 7.52323 196.594)
(3.7515 4.13222 19.5239 -25.9844 -12.6632 215.909)
(-3.278 1.38618 16.7361 -34.0204 -32.0303 238.342)
(-5.93411 -2.28714 -6.77254 -36.0193 -38.0096 239.795)
(-2.97965 -4.34828 -27.7112 -30.6354 -27.852 209.053)
(2.4598 -3.63867 -28.3509 -21.3808 -11.7611 161.929)
(6.05566 -1.29106 -9.76461 -14.1312 0.90648 125.491)
(5.72037 0.160248 14.2846 -12.1954 4.50273 113.563)
(2.15023 -0.0962015 29.2197 -14.2073 -2.0966 126.394)
(-2.13767 -0.234193 28.2984 -16.6971 -14.6222 147.257)
(-4.76405 0.409335 14.5492 -20.2004 -22.0142 164.653)
(-4.62479 0.239616 -4.37973 -24.1634 -19.6776 172.863)
(-1.55325 -0.347124 -18.735 -25.4824 -9.81365 169.844)
(3.33466 -0.449485 -17.6902 -23.4319 8.87594 160.055)
(6.88491 0.513349 2.89695 -19.0545 21.199 155.022)
(5.80007 2.64283 31.3672 -20.1868 21.0917 176.828)
(0.222758 3.12599 46.0005 -31.2973 10.0419 227.715)
(-6.09274 0.37059 34.395 -44.9778 -8.27572 281.179)
(-7.94923 -2.36141 2.92887 -48.7363 -23.4598 299.813)
(-3.7022 -2.27825 -20.9275 -38.7918 -22.3555 258.588)
(1.86215 0.324446 -19.6689 -27.5109 -14.8093 195.616)
(4.71634 3.19036 -4.12032 -19.9683 -4.47532 135.096)
(4.61684 2.04649 11.8199 -15.9967 0.942087 90.046)
(-8.40556 -4.11805 21.0515 -16.1389 -10.9249 106.664)
(-68.6219 -5.51473 -15.3707 -30.5909 -41.8294 277.741)
(-83.2764 7.32524 20.4215 -63.6907 -95.1061 346.394)
(-22.6624 10.0991 -52.0801 -31.5693 -62.2804 290.189)
(-5.64282 6.71745 -90.5066 -22.8092 -38.9424 261.165)
(5.73188 5.94995 -87.4292 -17.5721 -17.7487 226.754)
(12.0123 5.27372 -49.7284 -13.3753 0.818831 199.675)
(10.5429 3.24549 -2.69122 -12.5501 -1.48747 199.03)
(3.10544 1.07967 24.306 -16.5195 -23.5603 223.716)
(-4.59658 -0.686967 18.4758 -21.9465 -45.8859 250.104)
(-7.14146 -1.79168 -8.75247 -23.9633 -52.8881 251.603)
(-3.33999 -1.79306 -31.7645 -21.0278 -41.1895 216.898)
(2.96622 -0.923089 -31.8724 -15.3414 -21.7523 165.837)
(6.80287 0.049572 -11.2764 -10.7091 -6.13634 128.244)
(6.12798 -0.070539 14.1189 -8.94631 -1.30751 117.028)
(2.20614 -1.14766 29.1382 -9.35858 -8.03321 130.122)
(-2.20285 -1.47475 28.0562 -10.1495 -20.8682 150.525)
(-4.97229 -0.659813 14.2358 -12.4117 -29.5582 168.446)
(-4.96473 0.00338382 -5.34869 -15.5705 -29.1923 177.061)
(-1.70828 0.587305 -20.2959 -16.9703 -20.2644 171.991)
(3.64463 1.0493 -18.9151 -16.4178 -1.81495 160.194)
(7.58867 0.994448 2.97503 -13.9269 11.8824 154.798)
(6.35205 0.73074 33.0106 -14.764 11.4006 178.642)
(0.040822 -0.383439 47.8461 -21.8327 -3.9695 231.85)
(-6.78382 -2.09141 34.6616 -30.0595 -27.4297 284.321)
(-8.36874 -1.82692 2.22804 -32.3017 -43.7823 300.573)
(-3.45633 0.317057 -21.0561 -27.1261 -39.526 261.842)
(2.5739 2.76218 -18.2572 -19.9807 -27.5576 200.433)
(5.18596 4.62674 -0.650679 -14.2575 -13.6796 142.718)
(4.00888 2.89173 15.6109 -9.69141 -5.28974 100.687)
(-9.93233 -3.77983 21.4096 -8.20937 -16.5015 114.881)
(-70.0006 -4.61943 -17.3078 -17.7513 -56.0075 267.077)
(-78.9119 5.27768 23.4495 -35.0324 -121.913 298.379)
(-23.1926 10.9881 -45.2237 -15.8611 -71.1264 275.321)
(-5.97017 8.66369 -84.0744 -10.9672 -44.5504 253.057)
(5.76863 8.07464 -80.4341 -7.78835 -22.6036 218.998)
(11.9115 6.06734 -43.2921 -5.7428 -3.78281 194.983)
(10.1348 2.09619 1.85208 -5.21894 -5.68261 198.27)
(2.3988 -1.13602 26.5452 -6.92524 -28.1444 225.105)
(-5.43026 -2.28465 18.4412 -9.97054 -51.7687 252.106)
(-7.72639 -1.62195 -10.4541 -11.7845 -59.7714 252.347)
(-3.41054 -0.15465 -33.8824 -11.2158 -48.0565 216.078)
(3.30464 0.871899 -33.3693 -8.95893 -27.5465 164.55)
(7.16651 0.982288 -11.8395 -6.76562 -10.7053 127.741)
(6.22556 -0.105396 13.767 -5.32656 -4.81442 117.569)
(2.13137 -1.71154 28.2505 -4.36527 -10.7151 129.962)
(-2.24753 -2.24316 26.871 -3.6229 -22.8402 148.731)
(-5.00997 -1.40885 13.1998 -4.66564 -32.0353 165.776)
(-5.01857 -0.200966 -6.28893 -7.08109 -33.1361 173.938)
(-1.6514 1.17855 -20.9197 -8.71579 -25.2997 167.699)
(3.85539 2.02106 -18.897 -9.43042 -7.85681 155.493)
(7.84357 1.30248 3.41221 -8.47872 6.14191 151.135)
(6.42912 -0.509666 33.3292 -8.70426 5.53995 175.843)
(-0.196309 -2.59853 47.3641 -11.941 -11.5755 227.949)
(-7.01658 -3.61963 33.2904 -15.5427 -36.8909 276.596)
(-8.21268 -1.59934 1.70175 -16.5034 -53.6443 289.627)
(-2.97257 1.86016 -19.6332 -15.1495 -48.9422 254.686)
(3.17133 4.44719 -15.236 -11.9095 -35.1271 197.815)
(5.5035 5.91439 3.84316 -7.94037 -18.8885 144.365)
(3.40079 3.91503 20.2678 -3.15121 -7.29142 106.124)
(-11.1201 -3.17805 22.9676 -0.130737 -16.8031 118.069)
(-69.3619 -4.01923 -18.0824 -4.68812 -61.1762 248.881)
(-70.3155 3.63821 23.5917 -7.94647 -130.23 238.092)
(-22.3754 11.1009 -39.3877 -2.44818 -71.6899 253.734)
(-5.86678 9.85619 -76.5499 -1.43312 -44.0542 241.12)
(5.66504 9.38228 -71.9539 0.246095 -22.019 210.164)
(11.3416 6.43022 -36.4832 0.973538 -3.70213 190.326)
(9.32214 1.25379 5.28498 1.5175 -5.27062 196.701)
(1.65185 -2.6433 26.9333 1.68677 -26.9295 223.624)
(-5.92725 -3.45446 17.0641 0.59779 -50.5925 249.145)
(-7.8722 -1.72061 -12.1289 -0.970146 -59.4843 247.285)
(-3.2699 0.66677 -34.8528 -2.42135 -49.0586 210.718)
(3.54098 1.85066 -33.6169 -3.07471 -29.393 160.551)
(7.28613 1.53898 -11.7937 -2.88378 -12.7152 125.413)
(6.12559 -0.00909221 13.3652 -1.80281 -6.01488 116.426)
(1.96505 -1.87649 26.9421 0.179534 -10.3845 127.807)
(-2.29125 -2.60615 25.1314 2.14982 -21.0039 144.452)
(-4.93894 -1.87999 11.6995 2.15281 -30.0316 159.841)
(-4.87699 -0.38987 -7.21611 0.344729 -32.2023 167.041)
(-1.45057 1.47218 -20.9295 -1.52957 -25.6408 160.117)
(3.99868 2.56231 -18.0733 -3.26055 -9.76402 148.532)
(7.80434 1.50952 4.0939 -3.41563 3.80861 145.869)
(6.20596 -1.13629 32.8822 -2.86259 3.5216 170.614)
(-0.462393 -3.7265 45.5567 -2.86144 -13.1903 219.886)
(-6.97375 -4.38197 30.9981 -2.90319 -37.9551 263.638)
(-7.7083 -1.57721 1.20093 -2.9281 -54.5628 273.256)
(-2.31156 2.55092 -17.396 -4.34711 -51.2903 242.129)
(3.75043 5.46819 -11.169 -4.34894 -37.7812 191.016)
(5.76449 7.01557 9.24956 -1.92754 -20.1816 142.726)
(2.80438 5.02691 25.8377 2.74143 -5.44516 109.251)
(-12.1549 -2.28914 25.62 7.07831 -12.3319 119.66)
(-67.8145 -3.52753 -18.0205 7.00782 -57.8384 228.731)
(-59.83 2.35401 22.0603 15.3231 -122.331 176.015)
(-20.7292 10.5512 -34.2121 7.97087 -65.8982 230.27)
(-5.48146 10.4753 -68.3276 5.4028 -39.2486 228.69)
(5.44098 10.0904 -62.67 6.07879 -17.3986 202.675)
(10.4544 6.50988 -29.6441 6.14935 0.175932 187.561)
(8.25135 0.678287 7.84979 6.94219 -0.911625 196.285)
(0.88285 -3.58695 26.0155 8.57123 -20.8749 222.038)
(-6.20516 -4.26487 14.7055 8.97714 -43.6449 244.799)
(-7.73513 -2.01699 -13.9572 7.60955 -53.3668 240.388)
(-2.98818 0.829873 -35.3157 4.60646 -45.2546 203.978)
(3.72903 2.17281 -33.2451 1.72767 -27.8984 155.82)
(7.27443 1.78544 -11.4279 0.45518 -12.3854 122.543)
(5.92061 0.162452 12.9902 1.24305 -5.10145 114.678)
(1.74341 -1.74729 25.4991 3.889 -7.50778 125.12)
(-2.34746 -2.6521 23.1383 6.74147 -16.0582 139.614)
(-4.81064 -2.13009 9.93564 7.5518 -24.4051 153.007)
(-4.61469 -0.570826 -8.14825 6.20299 -27.3661 158.958)
(-1.15854 1.52611 -20.5847 4.1333 -22.2162 151.607)
(4.10518 2.77435 -16.7778 1.6309 -8.32981 141.222)
(7.5982 1.67085 4.96082 0.754933 4.39358 140.48)
(5.8175 -1.25602 32.1208 2.09933 4.94043 164.846)
(-0.740785 -4.02215 43.1768 4.59869 -9.72553 210.714)
(-6.79257 -4.56413 28.3305 7.0881 -32.2807 249.509)
(-7.03262 -1.66994 0.667624 7.65509 -48.4546 255.944)
(-1.53306 2.61725 -14.8749 4.39509 -47.8089 228.023)
(4.37592 5.95331 -6.50521 1.96437 -36.2006 182.712)
(6.03832 7.9135 15.4332 3.08782 -18.0538 140.112)
(2.23729 6.14494 32.2665 7.42714 -0.444491 112.278)
(-13.1382 -1.19137 29.215 12.6814 -3.99639 122.291)
(-66.2701 -3.04219 -17.4288 16.0207 -47.3943 211.395)
(-49.3981 1.33763 19.9238 33.3818 -101.422 120.351)
(-18.6929 9.46243 -29.263 15.192 -55.6864 208.289)
(-4.9454 10.6767 -59.6215 9.57581 -31.7991 217.845)
(5.10751 10.3829 -53.0587 9.59323 -10.1902 197.978)
(9.36516 6.41911 -22.9956 9.40401 6.73826 187.891)
(7.03164 0.32288 9.74781 10.5303 6.41043 198.475)
(0.10813 -4.09805 24.216 13.2213 -11.2151 222.341)
(-6.35159 -4.7833 11.6583 14.6955 -32.4912 241.657)
(-7.43913 -2.43566 -16.061 13.491 -43.0119 234.459)
(-2.6237 0.51814 -35.7486 9.45269 -37.9442 198.107)
(3.90814 2.01971 -32.737 5.08644 -23.9265 151.816)
(7.21513 1.80283 -10.9651 2.88295 -10.1928 120.184)
(5.6804 0.37015 12.6793 3.48651 -2.46563 113.256)
(1.49684 -1.42308 24.1123 6.51119 -2.69404 122.977)
(-2.42354 -2.47123 21.1092 9.92475 -8.82467 135.558)
(-4.66372 -2.21537 8.05805 11.2963 -16.1403 146.91)
(-4.28972 -0.744615 -9.09451 10.2725 -19.7095 151.467)
(-0.815461 1.39996 -20.0827 8.04895 -16.0715 143.846)
(4.20092 2.74659 -15.2596 5.01442 -4.47887 134.875)
(7.32254 1.81317 5.98661 3.70951 7.17552 136.055)
(5.36063 -0.99922 31.3843 5.70846 9.0697 160.015)
(-1.02003 -3.73151 40.7627 9.94482 -2.39406 202.661)
(-6.56634 -4.33591 25.6943 14.0717 -21.7138 237.027)
(-6.31305 -1.80801 0.0971059 14.9706 -37.3247 240.695)
(-0.690648 2.27339 -12.4114 10.62 -40.0058 215.12)
(5.08332 6.0389 -1.57298 6.55022 -31.3996 174.988)
(6.36908 8.61137 22.2534 6.64021 -13.3417 138.314)
(1.70787 7.20488 39.4674 10.5531 6.86129 116.794)
(-14.1219 -0.0179375 33.5192 16.1843 7.03808 127.805)
(-65.3777 -2.54153 -16.5359 21.3439 -31.9984 200.436)
(-40.4975 0.505643 18.0511 45.4595 -71.2228 77.0295)
(-16.6095 7.95904 -24.1284 19.2707 -42.8545 189.945)
(-4.36379 10.5736 -50.5411 11.3011 -23.1334 209.721)
(4.67047 10.3885 -43.4353 10.8419 -1.72822 196.743)
(8.1577 6.22099 -16.6766 10.5134 14.7723 191.948)
(5.74355 0.13373 11.14 11.903 15.4805 204.171)
(-0.656927 -4.28796 21.8608 15.2953 0.603659 225.816)
(-6.42794 -5.0654 8.15477 17.4832 -18.8143 241.358)
(-7.07498 -2.89632 -18.5019 16.4553 -30.1154 231.284)
(-2.22095 -0.0764839 -36.4681 11.9229 -28.53 194.54)
(4.10253 1.57422 -32.4142 6.81633 -18.454 149.455)
(7.16302 1.67294 -10.5594 4.15688 -6.81229 119.071)
(5.45215 0.587576 12.4436 4.67943 1.30622 112.857)
(1.24855 -0.987217 22.8934 7.88512 3.35035 122.085)
(-2.52143 -2.14477 19.1886 11.5998 -0.187123 133.12)
(-4.52392 -2.18622 6.17502 13.3122 -6.26743 142.557)
(-3.94419 -0.909191 -10.0558 12.4969 -10.3297 145.674)
(-0.451667 1.15139 -19.5628 10.1641 -8.29937 137.88)
(4.30369 2.55381 -13.6985 6.81471 0.828596 130.279)
(7.04505 1.93568 7.15052 5.278 11.3238 133.253)
(4.90159 -0.508934 30.9025 7.66913 14.9533 157.113)
(-1.29017 -3.07352 38.6713 12.8998 7.42206 197.181)
(-6.35162 -3.84121 23.3637 17.928 -8.10454 227.918)
(-5.6321 -1.93872 -0.481286 18.9988 -23.1201 229.33)
(0.171633 1.70468 -10.1962 14.1485 -29.4803 205.198)
(5.88371 5.8544 3.40458 9.15107 -24.5547 169.26)
(6.78 9.12231 29.5823 8.47897 -7.05955 138.509)
(1.21872 8.15722 47.3455 11.8951 15.5126 123.834)
(-15.1222 1.10315 38.3927 17.2875 19.49 137.267)
(-65.4765 -2.03044 -15.5606 22.3417 -14.3276 197.882)
(-34.1213 -0.21392 17.07 51.2458 -35.6882 49.788)
(-14.7235 6.15759 -18.4976 20.373 -29.0299 176.423)
(-3.81329 10.2356 -41.1538 10.8124 -14.45 204.774)
(4.13366 10.1779 -34.0148 9.91101 6.79108 199.096)
(6.89209 5.93181 -10.7834 9.33253 23.0018 199.852)
(4.44716 0.0492955 12.1394 10.7905 24.9131 213.696)
(-1.39607 -4.25062 19.1872 14.5697 13.0107 233.002)
(-6.47093 -5.14995 4.38496 17.1953 -4.34991 244.698)
(-6.70142 -3.30921 -21.2725 16.424 -16.4026 231.753)
(-1.81214 -0.7599 -37.6306 11.9602 -18.4378 193.987)
(4.32064 1.00887 -32.4541 6.85146 -12.4875 149.188)
(7.1457 1.46713 -10.3019 4.15242 -3.02036 119.572)
(5.26272 0.793602 12.2757 4.66935 5.49908 113.85)
(1.01523 -0.50648 21.8939 7.9161 9.85694 122.803)
(-2.63869 -1.73993 17.4575 11.7297 8.97382 132.679)
(-4.40549 -2.08377 4.35826 13.6022 4.21697 140.416)
(-3.60566 -1.05969 -11.0279 12.9065 -0.290288 142.129)
(-0.089534 0.834395 -19.1116 10.5276 0.0587868 134.184)
(4.4209 2.25676 -12.2141 7.04976 6.65405 127.786)
(6.8048 2.01673 8.41857 5.39732 15.9773 132.363)
(4.48204 0.0680412 30.7828 7.83153 21.5253 156.602)
(-1.53895 -2.24303 37.1029 13.3372 18.2596 194.995)
(-6.17331 -3.19593 21.5091 18.6566 6.75135 223.019)
(-5.03416 -2.0155 -1.01106 19.8271 -7.68612 222.727)
(1.01934 1.07015 -8.29907 14.9661 -17.8269 199.203)
(6.76783 5.51613 8.29203 9.67532 -16.892 166.336)
(7.2772 9.45305 37.2999 8.49365 -0.261946 141.31)
(0.774119 8.94626 55.8276 11.3006 24.4819 133.888)
(-16.1153 2.07218 43.7389 15.8095 32.0194 151.016)
(-66.5576 -1.52057 -14.5185 18.7953 2.66463 204.017)
(-30.7803 -0.892048 17.3336 50.798 1.19714 40.2674)
(-13.1828 4.15592 -12.2217 18.6977 -15.691 168.088)
(-3.34102 9.69245 -31.5342 8.28136 -6.79397 202.923)
(3.50186 9.77495 -24.9551 6.83908 14.2395 204.74)
(5.61079 5.53459 -5.39878 5.7574 30.0821 211.232)
(3.18887 0.00322118 12.8091 7.02162 33.1919 226.748)
(-2.08905 -4.06297 16.3593 10.9165 24.355 243.721)
(-6.4935 -5.05606 0.513852 13.7764 9.12865 251.661)
(-6.34743 -3.57328 -24.2862 13.4088 -3.59874 235.933)
(-1.42041 -1.33759 -39.2313 9.59937 -9.08036 196.508)
(4.55288 0.485604 -32.8959 5.2072 -7.02676 151.053)
(7.16556 1.24529 -10.2406 2.8541 0.375632 121.704)
(5.12233 0.965978 12.1491 3.41569 9.3423 116.241)
(0.808877 -0.0391731 21.1211 6.56335 16.0222 125.135)
(-2.76847 -1.31171 15.953 10.3004 17.787 134.256)
(-4.31275 -1.93744 2.65145 12.193 14.354 140.542)
(-3.28939 -1.18477 -12 11.5723 9.39385 140.903)
(0.254816 0.500558 -18.7696 9.23919 8.03392 132.79)
(4.54839 1.90396 -10.878 5.79094 12.1034 127.378)
(6.61443 2.01973 9.73213 4.07592 20.2773 133.345)
(4.12349 0.584327 31.0219 6.16555 27.6861 158.459)
(-1.74956 -1.41874 36.1133 11.2458 28.6289 196.124)
(-6.02752 -2.4945 20.2163 16.3159 21.1089 222.377)
(-4.53101 -1.98991 -1.40751 17.5761 7.22227 220.964)
(1.82582 0.513822 -6.68329 13.1543 -6.59309 197.349)
(7.7058 5.12592 13.0308 8.15042 -9.62834 166.473)
(7.84822 9.5893 45.2746 6.65123 5.9899 146.879)
(0.391425 9.49124 64.8095 8.6527 32.6766 146.933)
(-17.0378 2.81431 49.5774 11.6517 43.1988 168.673)
(-68.2701 -1.00389 -13.2981 10.8985 16.0695 217.355)
(-30.5171 -1.61275 18.9028 44.4961 35.5878 48.1122)
(-12.0394 2.02235 -5.35371 14.4614 -4.21176 164.549)
(-2.96351 8.93612 -21.8037 3.81334 -1.15205 203.582)
(2.78405 9.17028 -16.389 1.61762 19.4611 212.948)
(4.34358 4.99608 -0.613511 -0.261766 34.5936 225.165)
(2.00624 -0.067604 13.1589 0.548771 38.7046 242.317)
(-2.70902 -3.78616 13.482 4.32312 32.8981 257.027)
(-6.48547 -4.7851 -3.29984 7.27581 19.8065 261.389)
(-6.01483 -3.57689 -27.3662 7.51334 6.58359 243.074)
(-1.06232 -1.6169 -41.1047 4.96103 -1.83644 201.526)
(4.77092 0.162473 -33.6468 1.97309 -3.05202 154.694)
(7.20021 1.06572 -10.3867 0.356555 2.57945 125.134)
(5.02561 1.07519 12.0143 0.995678 12.0678 119.658)
(0.638598 0.352626 20.5396 3.84276 21.028 128.719)
(-2.89821 -0.90898 14.6754 7.31943 25.3571 137.501)
(-4.24028 -1.76541 1.07879 9.12969 23.1839 142.588)
(-3.00009 -1.26184 -12.948 8.59424 17.7529 141.632)
(0.568916 0.202271 -18.5324 6.43722 14.7109 133.329)
(4.66929 1.53181 -9.72409 3.15205 16.3323 128.702)
(6.4615 1.89878 10.9983 1.38567 23.3783 135.845)
(3.83001 0.889889 31.5026 2.75862 32.334 162.168)
(-1.8985 -0.772852 35.6208 6.72761 37.0539 199.886)
(-5.88203 -1.82045 19.499 11.0199 33.2469 225.264)
(-4.10463 -1.80613 -1.55058 12.391 19.9109 223.365)
(2.56969 0.176449 -5.21039 8.87304 2.73889 199.171)
(8.6444 4.77275 17.6282 4.70977 -3.9443 169.409)
(8.45878 9.49008 53.3417 2.99137 10.6028 154.942)
(0.103255 9.68405 74.1172 3.88024 38.9078 162.4)
(-17.7674 3.24806 56.0157 4.82802 51.5142 189.046)
(-69.9212 -0.399974 -11.6336 -0.804228 23.25 234.769)
(-32.9298 -2.47986 21.5447 33.0351 63.9412 71.0813)
(-11.2503 -0.208924 1.83467 7.93334 4.11097 164.647)
(-2.6669 7.92771 -12.1625 -2.48925 1.47535 205.591)
(1.99712 8.33284 -8.45172 -5.72205 21.2034 222.43)
(3.11284 4.28259 3.46391 -8.65514 35.0488 240.062)
(0.931377 -0.2148 13.1473 -8.4789 39.8027 258.55)
(-3.22181 -3.46673 10.6155 -5.01885 36.8555 271.018)
(-6.41465 -4.32564 -6.88524 -2.07781 25.8569 272.085)
(-5.68086 -3.20325 -30.2365 -1.0147 12.4752 251.549)
(-0.748633 -1.41061 -42.927 -1.71352 1.97929 207.803)
(4.92906 0.197417 -34.4901 -2.66066 -1.49969 159.323)
(7.20111 0.987718 -10.706 -3.12533 2.87768 129.145)
(4.94966 1.08006 11.7912 -2.39794 12.9882 123.344)
(0.512133 0.594001 20.0593 -0.151876 24.0692 132.785)
(-3.00729 -0.578913 13.5835 2.85557 30.7665 141.603)
(-4.17148 -1.57438 -0.345299 4.51454 29.746 145.717)