/*--------------------------------*- C++ -*----------------------------------*\
| =========                 |                                                 |
| \\      /  F ield         | OpenFOAM: The Open Source CFD Toolbox           |
|  \\    /   O peration     | Version:  2106                                  |
|   \\  /    A nd           | Website:  www.openfoam.com                      |
|    \\/     M anipulation  |                                                 |
\*---------------------------------------------------------------------------*/
FoamFile
{
    version     2.0;
    format      ascii;
    arch        "LSB;label=32;scalar=64";
    class       volSymmTensorField;
    location    "849";
    object      sigma;
}
// * * * * * * * * * * * * * * * * * * * * * * * * * * * * * * * * * * * * * //

dimensions      [1 -1 -2 0 0 0 0];

internalField   nonuniform List<symmTensor> 
9000
(
(-1.9631e+11 5.29507e+09 -1.291e+11 -1.02161e+11 2.64177e+10 -1.21981e+12)
(-3.03492e+11 -2.20756e+08 -7.8806e+10 -1.00686e+11 -7.36959e+09 -1.04513e+12)
(-2.57014e+11 -1.06629e+09 9.00605e+09 -7.7713e+10 -2.69544e+09 -7.98155e+11)
(-1.32939e+11 -1.49221e+09 3.54079e+10 -3.45379e+10 1.37491e+10 -3.66298e+11)
(-3.53822e+10 -8.92012e+08 -1.23856e+10 -2.8652e+08 2.15038e+10 -3.33706e+10)
(-5.407e+10 6.02001e+08 -8.97849e+10 -7.07589e+09 1.48194e+10 -9.7748e+10)
(-1.70944e+11 1.44866e+09 -1.17985e+11 -4.81584e+10 -1.55674e+09 -5.01984e+11)
(-2.87994e+11 8.52964e+08 -6.42328e+10 -8.86497e+10 -1.56796e+10 -9.0175e+11)
(-3.10595e+11 -5.98469e+08 2.93529e+10 -9.56555e+10 -2.00866e+10 -9.70486e+11)
(-2.33069e+11 -1.67212e+09 9.06349e+10 -6.80053e+10 -1.18571e+10 -6.9599e+11)
(-1.23519e+11 -1.70594e+09 8.55166e+10 -3.07606e+10 -8.98227e+08 -3.23263e+11)
(-5.5515e+10 -8.51105e+08 3.6528e+10 -9.51777e+09 4.38687e+09 -1.06306e+11)
(-5.52269e+10 2.26032e+08 -9.24873e+09 -1.1257e+10 3.72883e+09 -1.22586e+11)
(-9.83517e+10 7.62639e+08 -2.58033e+10 -2.64455e+10 -4.78034e+08 -2.70121e+11)
(-1.43842e+11 7.34774e+08 -2.58759e+10 -4.07583e+10 -6.37554e+09 -4.13141e+11)
(-1.84931e+11 5.3829e+08 -1.96123e+10 -5.38835e+10 -1.12575e+10 -5.44771e+11)
(-2.06039e+11 1.45032e+08 5.78719e+09 -6.14793e+10 -1.07229e+10 -6.20852e+11)
(-1.76169e+11 -4.08307e+08 4.16494e+10 -5.13318e+10 -1.90233e+09 -5.29817e+11)
(-1.09226e+11 -7.35164e+08 5.54252e+10 -2.79961e+10 9.38365e+09 -3.00572e+11)
(-4.99134e+10 -1.85261e+08 2.14632e+10 -6.05255e+09 1.53169e+10 -8.66854e+10)
(-6.74215e+10 1.26463e+09 -4.75645e+10 -1.05339e+10 1.20383e+10 -1.32302e+11)
(-1.74618e+11 2.36752e+09 -9.07651e+10 -4.62406e+10 4.87451e+09 -4.93529e+11)
(-2.94667e+11 1.72703e+09 -5.89303e+10 -8.72347e+10 3.2607e+08 -9.03117e+11)
(-3.28474e+11 -6.65735e+08 2.31497e+10 -9.75408e+10 -1.27109e+09 -1.00569e+12)
(-2.5212e+11 -2.29619e+09 6.72848e+10 -7.0597e+10 -6.04006e+09 -7.28475e+11)
(-1.78673e+11 -1.92205e+09 4.06865e+10 -4.49382e+10 -6.18413e+09 -4.69864e+11)
(-1.62691e+11 -9.37938e+08 -5.16079e+09 -4.17866e+10 -9.91589e+09 -4.3738e+11)
(-1.91394e+11 7.8609e+07 -1.00466e+10 -5.60697e+10 -1.61079e+10 -5.79075e+11)
(-1.76457e+11 1.10924e+09 4.70758e+10 -5.80112e+10 -1.3296e+10 -5.85967e+11)
(-4.24715e+10 -1.24189e+09 6.13504e+10 -2.51273e+10 1.72639e+10 -3.08277e+11)
(-1.74541e+11 9.40918e+09 -1.10574e+11 -1.64511e+11 1.45329e+11 -1.00146e+12)
(-2.44996e+11 -3.43636e+09 -7.44503e+10 -1.37299e+11 5.91771e+10 -7.94124e+11)
(-2.05262e+11 -8.50933e+09 -8.8734e+09 -1.02928e+11 5.41586e+10 -5.97918e+11)
(-1.03421e+11 -1.05002e+10 1.35472e+10 -4.41029e+10 6.2927e+10 -2.70165e+11)
(-2.35351e+10 -4.67683e+09 -1.88958e+10 3.36124e+09 5.8329e+10 -1.81073e+10)
(-3.7923e+10 5.61643e+09 -7.47251e+10 -4.53156e+09 4.65229e+10 -6.48611e+10)
(-1.33867e+11 1.08169e+10 -9.37408e+10 -6.08108e+10 3.55503e+10 -3.73151e+11)
(-2.30574e+11 6.34454e+09 -4.98282e+10 -1.1712e+11 3.01906e+10 -6.79234e+11)
(-2.4836e+11 -3.35941e+09 2.38483e+10 -1.25689e+11 2.46615e+10 -7.29428e+11)
(-1.85562e+11 -1.01068e+10 7.15768e+10 -8.81474e+10 2.52824e+10 -5.21218e+11)
(-9.60271e+10 -9.85913e+09 6.7989e+10 -3.71318e+10 2.48517e+10 -2.36993e+11)
(-3.98118e+10 -4.21352e+09 3.00575e+10 -7.49658e+09 2.11084e+10 -7.01077e+10)
(-4.04289e+10 1.92462e+09 -4.89419e+09 -1.08608e+10 2.01938e+10 -8.47088e+10)
(-7.54335e+10 4.53199e+09 -1.65825e+10 -3.15474e+10 2.04387e+10 -1.95943e+11)
(-1.10844e+11 4.37666e+09 -1.67981e+10 -4.9083e+10 1.66787e+10 -2.99798e+11)
(-1.43953e+11 3.29043e+09 -1.41593e+10 -6.61969e+10 1.46477e+10 -3.98312e+11)
(-1.63463e+11 4.06529e+08 2.86193e+09 -7.89854e+10 2.14811e+10 -4.61738e+11)
(-1.43007e+11 -3.70025e+09 2.98326e+10 -6.95831e+10 3.66092e+10 -4.02872e+11)
(-8.97315e+10 -5.71702e+09 4.20551e+10 -3.93626e+10 4.77901e+10 -2.32458e+11)
(-3.9729e+10 -1.90303e+09 1.78133e+10 -7.3176e+09 4.72815e+10 -6.61379e+10)
(-5.17051e+10 7.03777e+09 -3.56012e+10 -1.04671e+10 4.28861e+10 -9.49488e+10)
(-1.41453e+11 1.32658e+10 -7.05e+10 -6.15926e+10 5.22446e+10 -3.75293e+11)
(-2.43207e+11 9.2449e+09 -4.52805e+10 -1.22453e+11 7.09913e+10 -6.96205e+11)
(-2.70518e+11 -3.42766e+09 2.11289e+10 -1.36736e+11 7.49522e+10 -7.72988e+11)
(-2.00713e+11 -1.10174e+10 5.54296e+10 -9.11445e+10 4.28671e+10 -5.44377e+11)
(-1.40491e+11 -7.76554e+09 3.28234e+10 -5.49346e+10 2.41955e+10 -3.47022e+11)
(-1.30538e+11 -1.71615e+09 -3.37253e+09 -5.33785e+10 1.23389e+10 -3.30275e+11)
(-1.59179e+11 1.13755e+09 -7.03722e+09 -7.79126e+10 6.76834e+09 -4.49987e+11)
(-1.45771e+11 -2.36181e+07 3.70145e+10 -8.03742e+10 1.17837e+10 -4.4982e+11)
(-3.06382e+10 -5.15462e+09 4.70372e+10 -2.98614e+10 5.98746e+10 -2.18811e+11)
(-1.27616e+11 1.21339e+10 -9.01879e+10 -1.72092e+11 1.97684e+11 -6.89296e+11)
(-1.70213e+11 -5.14666e+09 -7.22185e+10 -1.375e+11 9.19039e+10 -5.20876e+11)
(-1.37484e+11 -1.17018e+10 -2.57136e+10 -9.89753e+10 8.08244e+10 -3.76205e+11)
(-5.65882e+10 -1.43373e+10 -7.63659e+09 -3.3919e+10 8.1302e+10 -1.39492e+11)
(4.25727e+09 -6.26394e+09 -2.62288e+10 1.69376e+10 6.99466e+10 3.58833e+10)
(-9.10365e+09 7.94474e+09 -6.08616e+10 7.17643e+09 5.79333e+10 -3.24623e+09)
(-8.66299e+10 1.5146e+10 -7.02498e+10 -5.55174e+10 5.42075e+10 -2.30763e+11)
(-1.63928e+11 8.83701e+09 -3.59737e+10 -1.17913e+11 5.69312e+10 -4.54047e+11)
(-1.78695e+11 -4.70127e+09 1.7922e+10 -1.27875e+11 5.23634e+10 -4.91101e+11)
(-1.30509e+11 -1.41231e+10 5.20963e+10 -8.73885e+10 4.72852e+10 -3.4281e+11)
(-6.15928e+10 -1.38752e+10 4.95207e+10 -3.24486e+10 3.8282e+10 -1.40611e+11)
(-1.8959e+10 -5.96657e+09 2.27203e+10 -8.36165e+08 2.85023e+10 -2.40532e+10)
(-2.06543e+10 2.59782e+09 -7.98347e+08 -5.12526e+09 2.75476e+10 -3.79643e+10)
(-4.75793e+10 6.14752e+09 -7.47669e+09 -2.73284e+10 3.07003e+10 -1.16051e+11)
(-7.40368e+10 5.9825e+09 -7.9189e+09 -4.58158e+10 2.95213e+10 -1.8609e+11)
(-9.9572e+10 4.62788e+09 -8.44928e+09 -6.41756e+10 3.0468e+10 -2.55464e+11)
(-1.15197e+11 8.03235e+08 1.25752e+09 -7.8161e+10 4.02638e+10 -3.0275e+11)
(-9.88583e+10 -4.92284e+09 1.96065e+10 -6.78726e+10 5.58288e+10 -2.60732e+11)
(-5.63871e+10 -7.88736e+09 2.92942e+10 -3.42513e+10 6.40082e+10 -1.37331e+11)
(-1.61275e+10 -2.68215e+09 1.39502e+10 1.58382e+09 5.93351e+10 -1.53305e+10)
(-2.41946e+10 9.85573e+09 -2.3052e+10 -7.8741e+08 5.5823e+10 -3.27912e+10)
(-9.30186e+10 1.86752e+10 -4.7939e+10 -5.56563e+10 7.52067e+10 -2.31236e+11)
(-1.70412e+11 1.29089e+10 -2.96227e+10 -1.20903e+11 1.0545e+11 -4.56247e+11)
(-1.89486e+11 -5.03188e+09 1.7343e+10 -1.35692e+11 1.11488e+11 -5.04254e+11)
(-1.37528e+11 -1.54861e+10 3.98042e+10 -8.76107e+10 6.91396e+10 -3.46517e+11)
(-9.50959e+10 -1.06365e+10 2.23323e+10 -5.08507e+10 4.24728e+10 -2.172e+11)
(-9.36907e+10 -2.13161e+09 -3.42311e+09 -5.2985e+10 2.85407e+10 -2.22503e+11)
(-1.221e+11 1.51268e+09 -4.16421e+09 -8.31915e+10 2.52792e+10 -3.24671e+11)
(-1.10784e+11 -6.74086e+08 3.0829e+10 -8.48752e+10 2.85389e+10 -3.16638e+11)
(-1.08411e+10 -7.25292e+09 3.39865e+10 -2.04028e+10 7.30206e+10 -9.57147e+10)
(-7.39638e+10 1.32378e+10 -6.84174e+10 -1.45749e+11 1.99888e+11 -3.68405e+11)
(-9.01029e+10 -5.01085e+09 -6.9571e+10 -1.04743e+11 9.49035e+10 -2.60674e+11)
(-6.50438e+10 -1.18703e+10 -4.07157e+10 -6.93803e+10 8.22235e+10 -1.65694e+11)
(-6.34378e+09 -1.45616e+10 -2.69334e+10 -1.17645e+10 7.93842e+10 -9.80264e+09)
(3.48717e+10 -6.10085e+09 -3.29922e+10 3.19377e+10 6.74833e+10 9.75301e+10)
(2.24848e+10 8.65578e+09 -4.78802e+10 2.23547e+10 5.71606e+10 6.34627e+10)
(-3.56142e+10 1.6102e+10 -4.81315e+10 -3.39684e+10 5.73321e+10 -9.28338e+10)
(-9.25495e+10 9.31596e+09 -2.30159e+10 -8.97857e+10 6.32895e+10 -2.42739e+11)
(-1.04369e+11 -5.00953e+09 1.21237e+10 -9.90953e+10 5.96707e+10 -2.68859e+11)
(-7.15867e+10 -1.50161e+10 3.33518e+10 -6.44111e+10 5.28279e+10 -1.74254e+11)
(-2.46096e+10 -1.48328e+10 3.14305e+10 -1.7397e+10 4.0903e+10 -4.66354e+10)
(3.36461e+09 -6.43028e+09 1.52451e+10 9.30932e+09 2.95825e+10 2.27471e+10)
(5.66584e+08 2.59809e+09 2.80997e+09 4.65514e+09 2.88177e+10 8.9562e+09)
(-1.80928e+10 6.26872e+09 9.5014e+08 -1.43755e+10 3.25896e+10 -3.98629e+10)
(-3.54766e+10 6.17115e+09 3.32013e+08 -2.94988e+10 3.22989e+10 -8.00929e+10)
(-5.29981e+10 4.91366e+09 -2.9647e+09 -4.50499e+10 3.4655e+10 -1.23231e+11)
(-6.39789e+10 1.01247e+09 2.95207e+08 -5.76342e+10 4.50416e+10 -1.54464e+11)
(-5.10634e+10 -5.00475e+09 1.05899e+10 -4.91144e+10 5.87631e+10 -1.23994e+11)
(-1.96209e+10 -8.17099e+09 1.7485e+10 -1.9168e+10 6.51963e+10 -4.1105e+10)
(1.03738e+10 -2.73957e+09 1.02434e+10 1.35364e+10 5.97728e+10 4.12831e+10)
(6.32514e+09 1.04999e+10 -1.08977e+10 1.32433e+10 5.7671e+10 3.36042e+10)
(-3.9825e+10 1.97886e+10 -2.56174e+10 -3.37793e+10 7.94323e+10 -8.85188e+10)
(-9.09922e+10 1.34683e+10 -1.4067e+10 -9.00849e+10 1.10521e+11 -2.23599e+11)
(-1.01618e+11 -5.48991e+09 1.30731e+10 -1.02038e+11 1.14945e+11 -2.45198e+11)
(-6.96646e+10 -1.62687e+10 2.37136e+10 -6.08574e+10 7.44958e+10 -1.57022e+11)
(-4.60972e+10 -1.10308e+10 1.14836e+10 -3.1909e+10 4.79974e+10 -9.15575e+10)
(-5.34412e+10 -2.05615e+09 -4.15694e+09 -3.87631e+10 3.55922e+10 -1.18675e+11)
(-8.09156e+10 1.46339e+09 -1.55422e+09 -7.00379e+10 3.4142e+10 -2.06173e+11)
(-7.25306e+10 -1.39685e+09 2.6131e+10 -7.04445e+10 3.43747e+10 -1.92156e+11)
(1.01226e+10 -7.99005e+09 2.18221e+10 -2.9427e+09 6.75404e+10 2.71266e+10)
(-2.47652e+10 1.297e+10 -4.70199e+10 -1.02545e+11 1.68171e+11 -8.95794e+10)
(-1.8304e+10 -3.39969e+09 -6.55146e+10 -5.77077e+10 7.64903e+10 -4.22486e+10)
(-3.97772e+07 -9.86489e+09 -5.26212e+10 -2.86225e+10 6.63369e+10 9.54058e+09)
(3.89444e+10 -1.22699e+10 -4.27382e+10 1.55646e+10 6.52295e+10 9.98362e+10)
(6.32755e+10 -4.70607e+09 -3.81115e+10 4.78653e+10 5.75392e+10 1.53184e+11)
(5.20778e+10 8.23938e+09 -3.61782e+10 3.93552e+10 4.93468e+10 1.23732e+11)
(1.167e+10 1.4676e+10 -2.86965e+10 -5.2233e+09 4.89772e+10 2.64306e+10)
(-2.71028e+10 8.38256e+09 -1.17379e+10 -4.91159e+10 5.32047e+10 -6.36487e+10)
(-3.63666e+10 -4.59325e+09 6.97623e+09 -5.68969e+10 4.99843e+10 -8.11513e+10)
(-1.74013e+10 -1.36941e+10 1.67718e+10 -3.17873e+10 4.48439e+10 -3.05926e+10)
(9.70085e+09 -1.35498e+10 1.52579e+10 2.22357e+09 3.52869e+10 3.49593e+10)
(2.43622e+10 -5.90627e+09 8.39661e+09 2.09619e+10 2.63929e+10 6.48133e+10)
(2.05106e+10 2.16795e+09 5.68228e+09 1.61732e+10 2.60144e+10 5.08704e+10)
(9.0204e+09 5.37014e+09 8.03864e+09 2.18329e+09 2.84486e+10 2.55225e+10)
(-4.06535e+08 5.36189e+09 7.3444e+09 -7.85928e+09 2.70841e+10 9.38486e+09)
(-1.06377e+10 4.42258e+09 1.79071e+09 -1.89478e+10 2.89973e+10 -1.18742e+10)
(-1.72393e+10 9.95167e+08 -3.90931e+08 -2.89202e+10 3.83698e+10 -2.92486e+10)
(-7.35664e+09 -4.36074e+09 2.95581e+09 -2.28546e+10 4.99232e+10 -7.97302e+09)
(1.43004e+10 -7.14159e+09 7.36451e+09 5.00518e+08 5.69041e+10 4.21025e+10)
(3.53191e+10 -2.27868e+09 7.08613e+09 2.70855e+10 5.36003e+10 9.25876e+10)
(3.51946e+10 9.57008e+09 -1.99973e+08 2.92981e+10 5.26696e+10 9.38034e+10)
(9.52657e+09 1.7732e+10 -5.96489e+09 -4.73239e+09 7.06992e+10 3.51355e+10)
(-1.83628e+10 1.17614e+10 -4.97197e+08 -4.62249e+10 9.49111e+10 -2.60154e+10)
(-2.20287e+10 -5.05696e+09 9.20143e+09 -5.37698e+10 9.55692e+10 -2.77212e+10)
(-7.37945e+09 -1.43472e+10 9.6592e+09 -2.39871e+10 6.38566e+10 4.55828e+09)
(-3.61432e+08 -9.63258e+09 1.92856e+09 -6.49254e+09 4.27136e+10 1.79454e+10)
(-1.53651e+10 -1.58812e+09 -4.9421e+09 -1.83315e+10 3.38039e+10 -2.74106e+10)
(-4.19875e+10 1.19545e+09 6.58096e+08 -4.85231e+10 3.32585e+10 -1.03644e+11)
(-3.70514e+10 -2.06848e+09 2.22027e+10 -4.77739e+10 3.0553e+10 -8.61955e+10)
(2.86873e+10 -7.72639e+09 1.11768e+10 1.79328e+10 5.11044e+10 1.31783e+11)
(1.45789e+10 1.18064e+10 -2.77082e+10 -5.41086e+10 1.18139e+11 1.23978e+11)
(3.8933e+10 -9.90885e+08 -6.00361e+10 -7.94328e+09 4.75481e+10 1.22781e+11)
(5.20309e+10 -6.67688e+09 -6.07196e+10 1.40624e+10 4.25785e+10 1.40841e+11)
(7.53469e+10 -8.6326e+09 -5.40434e+10 4.3456e+10 4.55924e+10 1.81999e+11)
(8.68677e+10 -2.6888e+09 -4.1032e+10 6.37315e+10 4.40638e+10 1.96898e+11)
(7.71713e+10 7.15609e+09 -2.61138e+10 5.66637e+10 3.79699e+10 1.72481e+11)
(5.14103e+10 1.18871e+10 -1.28537e+10 2.51729e+10 3.43732e+10 1.20786e+11)
(2.72894e+10 6.65085e+09 -2.66663e+09 -5.57935e+09 3.41108e+10 7.58613e+10)
(2.00827e+10 -3.79506e+09 2.76756e+09 -1.1678e+10 3.09817e+10 6.48488e+10)
(2.77775e+10 -1.11257e+10 3.25568e+09 2.9768e+09 2.91857e+10 8.17838e+10)
(3.86113e+10 -1.09551e+10 2.01068e+09 2.27923e+10 2.4909e+10 9.96544e+10)
(4.24753e+10 -4.77637e+09 2.69337e+09 3.27692e+10 2.06517e+10 9.9554e+10)
(3.7694e+10 1.54752e+09 7.71207e+09 2.79225e+10 2.08125e+10 8.5373e+10)
(3.17653e+10 3.93932e+09 1.34034e+10 1.9277e+10 2.10113e+10 7.71621e+10)
(2.85841e+10 3.99283e+09 1.27189e+10 1.45807e+10 1.75145e+10 7.87043e+10)
(2.43165e+10 3.46576e+09 5.47756e+09 8.28198e+09 1.78209e+10 7.42467e+10)
(2.13475e+10 8.22954e+08 -1.00641e+09 1.2794e+09 2.53211e+10 6.76415e+10)
(2.85078e+10 -3.32749e+09 -3.12489e+09 4.97943e+09 3.50194e+10 8.09984e+10)
(4.23375e+10 -5.40308e+09 -5.85972e+08 2.10801e+10 4.38087e+10 1.06506e+11)
(5.63828e+10 -1.55429e+09 4.70715e+09 4.084e+10 4.39695e+10 1.33686e+11)
(5.98765e+10 7.73822e+09 8.37654e+09 4.55778e+10 4.38271e+10 1.42998e+11)
(5.07624e+10 1.38889e+10 9.57045e+09 2.58069e+10 5.50099e+10 1.32324e+11)
(4.11327e+10 8.82535e+09 1.00131e+10 4.94754e+08 6.86562e+10 1.2537e+11)
(4.23931e+10 -4.13803e+09 6.17585e+09 -2.42846e+09 6.52804e+10 1.36321e+11)
(4.42152e+10 -1.10071e+10 -1.0787e+09 1.48786e+10 4.43925e+10 1.29977e+11)
(3.83023e+10 -7.2355e+09 -5.41064e+09 2.032e+10 3.077e+10 1.05266e+11)
(1.73357e+10 -8.3437e+08 -5.38895e+09 3.82118e+09 2.61941e+10 4.65514e+10)
(-8.73572e+09 9.32153e+08 2.51546e+09 -2.44521e+10 2.62283e+10 -2.16832e+10)
(-7.3149e+09 -2.56155e+09 1.89676e+10 -2.29277e+10 2.11066e+10 -3.13129e+09)
(4.3264e+10 -6.86145e+09 2.64647e+09 3.91032e+10 2.9469e+10 2.10644e+11)
(4.22436e+10 1.01919e+10 -1.16417e+10 -8.42472e+09 6.24645e+10 2.67353e+11)
(8.01932e+10 1.58542e+09 -5.36613e+10 3.74917e+10 1.69946e+10 2.35057e+11)
(9.00271e+10 -3.18947e+09 -6.50452e+10 5.28897e+10 1.82499e+10 2.29918e+11)
(1.01875e+11 -4.65747e+09 -6.07297e+10 6.8881e+10 2.55283e+10 2.36696e+11)
(1.04696e+11 -5.81306e+08 -4.16976e+10 7.85211e+10 2.99176e+10 2.27236e+11)
(9.6813e+10 5.79693e+09 -1.7792e+10 7.30431e+10 2.56414e+10 2.08502e+11)
(8.23323e+10 8.61621e+09 -8.1506e+08 5.38503e+10 1.7978e+10 1.89668e+11)
(6.91814e+10 4.63295e+09 4.07813e+09 3.51954e+10 1.26049e+10 1.76439e+11)
(6.35792e+10 -2.90863e+09 -4.64711e+08 3.04797e+10 9.41273e+09 1.70276e+11)
(6.26398e+10 -8.13976e+09 -6.971e+09 3.54341e+10 1.11613e+10 1.62929e+11)
(6.11512e+10 -7.88419e+09 -7.98323e+09 4.20427e+10 1.28788e+10 1.46834e+11)
(5.7024e+10 -3.40166e+09 -1.66506e+09 4.38157e+10 1.37475e+10 1.26176e+11)
(5.14764e+10 9.29493e+08 8.95309e+09 3.8936e+10 1.45652e+10 1.11758e+11)
(4.94748e+10 2.39031e+09 1.70054e+10 3.51121e+10 1.25545e+10 1.14888e+11)
(5.07275e+10 2.45014e+09 1.63701e+10 3.5227e+10 6.80547e+09 1.28068e+11)
(5.09129e+10 2.32786e+09 7.99135e+09 3.33178e+10 5.09518e+09 1.35406e+11)
(5.0673e+10 5.87928e+08 -1.63969e+09 2.91256e+10 1.04405e+10 1.36374e+11)
(5.54549e+10 -2.17887e+09 -7.6549e+09 3.07538e+10 1.87641e+10 1.42948e+11)
(6.35197e+10 -3.47649e+09 -6.29014e+09 4.01412e+10 2.95195e+10 1.51504e+11)
(7.26441e+10 -7.92017e+08 3.1423e+09 5.36459e+10 3.31974e+10 1.6328e+11)
(7.9297e+10 5.59104e+09 1.46758e+10 6.07449e+10 3.3416e+10 1.79755e+11)
(8.24658e+10 9.50359e+09 2.06254e+10 5.42077e+10 3.71884e+10 2.0237e+11)
(8.57192e+10 5.57198e+09 1.7231e+10 4.38015e+10 3.9969e+10 2.30627e+11)
(9.00642e+10 -3.11164e+09 4.07952e+09 4.47565e+10 3.33598e+10 2.48422e+11)
(8.35213e+10 -7.35746e+09 -8.30231e+09 5.07386e+10 2.22556e+10 2.19039e+11)
(6.84147e+10 -4.51954e+09 -1.02705e+10 4.54208e+10 1.61305e+10 1.6914e+11)
(4.33338e+10 1.04756e+08 -5.25748e+09 2.50114e+10 1.59526e+10 1.0203e+11)
(1.75958e+10 8.42064e+08 4.1945e+09 -1.16444e+09 1.67651e+10 3.92651e+10)
(1.57772e+10 -2.82736e+09 1.65144e+10 7.39846e+08 9.93583e+09 5.71065e+10)
(5.33839e+10 -5.74383e+09 -3.66503e+09 5.84432e+10 7.00652e+09 2.62422e+11)
(5.85753e+10 8.40754e+09 6.33774e+08 2.97964e+10 1.0057e+10 3.4616e+11)
(1.06863e+11 3.88768e+09 -4.70799e+10 7.48319e+10 -9.60354e+09 3.02042e+11)
(1.1525e+11 8.25207e+06 -6.61383e+10 8.48429e+10 -2.38636e+09 2.83629e+11)
(1.19312e+11 -1.02906e+09 -6.32983e+10 9.0103e+10 8.35001e+09 2.68047e+11)
(1.16927e+11 1.25577e+09 -4.03995e+10 9.1506e+10 1.71798e+10 2.45393e+11)
(1.11076e+11 4.4316e+09 -1.1113e+10 8.77145e+10 1.42517e+10 2.32741e+11)
(1.04755e+11 5.47684e+09 7.70651e+09 7.89506e+10 3.00832e+09 2.35919e+11)
(9.9328e+10 2.66806e+09 8.66126e+09 7.03118e+10 -6.85223e+09 2.43356e+11)
(9.49026e+10 -2.12858e+09 -2.85315e+09 6.65297e+10 -1.03606e+10 2.40607e+11)
(8.76819e+10 -5.30823e+09 -1.4166e+10 6.32455e+10 -5.57589e+09 2.16673e+11)
(7.74894e+10 -4.94026e+09 -1.49146e+10 5.8698e+10 1.44992e+09 1.78262e+11)
(6.79082e+10 -2.0485e+09 -4.71734e+09 5.35486e+10 6.78256e+09 1.44902e+11)
(6.17858e+10 4.33576e+08 9.55617e+09 4.86421e+10 8.37762e+09 1.30365e+11)
(6.23033e+10 1.00585e+09 1.90492e+10 4.87357e+10 4.73798e+09 1.40169e+11)
(6.63722e+10 1.01236e+09 1.84478e+10 5.27297e+10 -2.77444e+09 1.59976e+11)
(6.95799e+10 1.22206e+09 9.40253e+09 5.44415e+10 -6.36354e+09 1.74713e+11)
(7.11991e+10 3.57945e+08 -2.30422e+09 5.26113e+10 -3.05776e+09 1.80425e+11)
(7.40192e+10 -1.11014e+09 -1.078e+10 5.24613e+10 4.32397e+09 1.81557e+11)
(7.81447e+10 -1.71715e+09 -9.97585e+09 5.62977e+10 1.64698e+10 1.79392e+11)
(8.41115e+10 -1.3795e+08 2.28674e+09 6.47285e+10 2.29776e+10 1.82131e+11)
(9.33294e+10 3.53202e+09 1.8877e+10 7.39535e+10 2.31619e+10 2.04491e+11)
(1.04926e+11 5.43107e+09 2.76024e+10 7.84976e+10 2.04589e+10 2.48131e+11)
(1.16329e+11 2.6115e+09 2.14893e+10 8.03302e+10 1.42463e+10 2.96067e+11)
(1.22339e+11 -2.23037e+09 2.7657e+09 8.40287e+10 5.36462e+09 3.1665e+11)
(1.11053e+11 -4.09719e+09 -1.24579e+10 8.09588e+10 1.56426e+09 2.75938e+11)
(9.00675e+10 -1.94735e+09 -1.28037e+10 6.70299e+10 1.86662e+09 2.11479e+11)
(6.26096e+10 1.13396e+09 -4.41137e+09 4.37046e+10 5.65082e+09 1.40401e+11)
(3.71809e+10 9.98872e+08 5.95385e+09 1.95647e+10 7.67346e+09 8.15567e+10)
(3.26099e+10 -2.88923e+09 1.49476e+10 2.15663e+10 -1.34673e+08 9.74913e+10)
(5.92771e+10 -4.64053e+09 -7.90905e+09 7.47213e+10 -1.30169e+10 2.89655e+11)
(6.51735e+10 6.62182e+09 9.01835e+09 5.85147e+10 -3.33432e+10 3.71388e+11)
(1.21635e+11 5.67556e+09 -4.08798e+10 1.02728e+11 -2.95974e+10 3.3375e+11)
(1.30065e+11 2.62162e+09 -6.47255e+10 1.08924e+11 -1.7396e+10 3.10411e+11)
(1.29386e+11 1.89972e+09 -6.25705e+10 1.06492e+11 -4.29705e+09 2.81956e+11)
(1.24417e+11 2.65146e+09 -3.76048e+10 1.02355e+11 7.17598e+09 2.53932e+11)
(1.2065e+11 3.21256e+09 -5.8742e+09 1.00328e+11 5.1146e+09 2.47259e+11)
(1.19938e+11 2.80925e+09 1.32731e+10 9.97219e+10 -8.60897e+09 2.64171e+11)
(1.19611e+11 9.42381e+08 1.13779e+10 9.87109e+10 -2.17755e+10 2.83874e+11)
(1.1587e+11 -1.55489e+09 -4.60425e+09 9.54168e+10 -2.58405e+10 2.82926e+11)
(1.0434e+11 -2.95614e+09 -1.88392e+10 8.55387e+10 -1.89349e+10 2.48489e+11)
(8.84405e+10 -2.47372e+09 -1.92741e+10 7.22327e+10 -7.99571e+09 1.96854e+11)
(7.54197e+10 -8.77716e+08 -6.63838e+09 6.16958e+10 6.16262e+08 1.56617e+11)
(6.89505e+10 1.08943e+08 9.71124e+09 5.67706e+10 3.06114e+09 1.42266e+11)
(7.09041e+10 -6.54017e+07 1.98648e+10 5.97836e+10 -1.42535e+09 1.5537e+11)
(7.65006e+10 -1.59214e+08 1.92384e+10 6.66025e+10 -9.94074e+09 1.78065e+11)
(8.15237e+10 2.78283e+08 9.89112e+09 7.10294e+10 -1.49662e+10 1.967e+11)
(8.42687e+10 1.62901e+08 -2.97752e+09 7.09856e+10 -1.33776e+10 2.04932e+11)
(8.55919e+10 -2.35989e+08 -1.27368e+10 6.93239e+10 -6.67172e+09 2.02115e+11)
(8.71921e+10 -3.05578e+08 -1.20265e+10 6.89951e+10 6.03423e+09 1.93737e+11)
(9.13552e+10 3.48996e+08 1.96947e+09 7.37206e+10 1.4412e+10 1.92065e+11)
(1.02455e+11 1.7967e+09 2.13247e+10 8.47881e+10 1.4339e+10 2.18727e+11)
(1.1933e+11 2.12517e+09 3.1273e+10 9.79011e+10 6.82686e+09 2.73988e+11)
(1.35261e+11 2.51942e+08 2.33831e+10 1.08826e+11 -5.62617e+09 3.3056e+11)
(1.41867e+11 -1.60538e+09 1.99116e+09 1.14138e+11 -1.5949e+10 3.51096e+11)
(1.28418e+11 -1.54885e+09 -1.42274e+10 1.04562e+11 -1.51982e+10 3.06734e+11)
(1.04326e+11 2.20572e+08 -1.33717e+10 8.43572e+10 -1.0068e+10 2.36048e+11)
(7.59767e+10 2.16894e+09 -2.80116e+09 5.91951e+10 -3.0425e+09 1.64614e+11)
(5.10251e+10 1.39129e+09 8.03567e+09 3.70111e+10 6.40469e+08 1.09103e+11)
(4.42586e+10 -2.79962e+09 1.43116e+10 3.90012e+10 -7.4272e+09 1.22487e+11)
(6.1581e+10 -3.74914e+09 -1.04496e+10 8.74361e+10 -2.84374e+10 2.97052e+11)
(6.42476e+10 4.98e+09 1.38834e+10 7.75627e+10 -6.4657e+10 3.56355e+11)
(1.27531e+11 6.86576e+09 -3.54062e+10 1.21476e+11 -4.23407e+10 3.4022e+11)
(1.37141e+11 4.5668e+09 -6.15301e+10 1.25471e+11 -2.64746e+10 3.18528e+11)
(1.34118e+11 4.04502e+09 -5.94379e+10 1.18275e+11 -1.20663e+10 2.84377e+11)
(1.28355e+11 3.58529e+09 -3.38074e+10 1.11096e+11 5.56674e+08 2.55936e+11)
(1.26577e+11 2.20642e+09 -1.8296e+09 1.10877e+11 -1.01124e+09 2.54718e+11)
(1.29545e+11 7.34006e+08 1.65242e+10 1.16204e+11 -1.60173e+10 2.79525e+11)
(1.32322e+11 -4.67028e+08 1.25606e+10 1.20527e+11 -3.11951e+10 3.05477e+11)
(1.28741e+11 -1.21806e+09 -5.95028e+09 1.17304e+11 -3.59555e+10 3.04645e+11)
(1.14424e+11 -1.219e+09 -2.15948e+10 1.02399e+11 -2.80023e+10 2.64151e+11)
(9.51021e+10 -6.27553e+08 -2.16682e+10 8.26558e+10 -1.47881e+10 2.05828e+11)
(8.01107e+10 3.37011e+07 -7.66616e+09 6.82054e+10 -4.17173e+09 1.62671e+11)
(7.35314e+10 -4.79553e+07 9.5986e+09 6.32832e+10 -8.88895e+08 1.48926e+11)
(7.61589e+10 -7.80223e+08 1.98093e+10 6.82967e+10 -5.4613e+09 1.63121e+11)
(8.2349e+10 -1.00259e+09 1.90738e+10 7.69466e+10 -1.4187e+10 1.8618e+11)
(8.82551e+10 -4.48568e+08 9.67805e+09 8.31974e+10 -2.00949e+10 2.06152e+11)
(9.1562e+10 2.30046e+06 -3.63625e+09 8.43518e+10 -1.98461e+10 2.15311e+11)
(9.18338e+10 3.99274e+08 -1.3798e+10 8.1458e+10 -1.37766e+10 2.09921e+11)
(9.19129e+10 7.13356e+08 -1.28593e+10 7.82737e+10 -1.23388e+09 1.98342e+11)
(9.52221e+10 6.76066e+08 2.02255e+09 8.0595e+10 8.07811e+09 1.95301e+11)
(1.07537e+11 4.96787e+08 2.2442e+10 9.31818e+10 7.75057e+09 2.24667e+11)
(1.27315e+11 -2.60678e+08 3.25277e+10 1.12444e+11 -2.69863e+09 2.84908e+11)
(1.45288e+11 -1.42183e+09 2.35644e+10 1.29464e+11 -1.86479e+10 3.43193e+11)
(1.51719e+11 -1.24201e+09 1.51471e+09 1.35448e+11 -2.9765e+10 3.6175e+11)
(1.3775e+11 2.15548e+08 -1.43148e+10 1.21658e+11 -2.68714e+10 3.18111e+11)
(1.12701e+11 1.87784e+09 -1.2412e+10 9.73677e+10 -1.87348e+10 2.47214e+11)
(8.46365e+10 3.14544e+09 -4.42358e+08 7.1418e+10 -9.29996e+09 1.78136e+11)
(6.04849e+10 1.96591e+09 1.06129e+10 5.11709e+10 -3.59618e+09 1.2621e+11)
(5.20559e+10 -2.56968e+09 1.45551e+10 5.32272e+10 -1.12184e+10 1.36909e+11)
(6.11255e+10 -3.14048e+09 -1.17665e+10 9.66467e+10 -3.80762e+10 2.90284e+11)
(5.8155e+10 3.58798e+09 1.59419e+10 8.79861e+10 -8.28816e+10 3.14653e+11)
(1.27358e+11 7.47014e+09 -3.07449e+10 1.32342e+11 -4.83546e+10 3.303e+11)
(1.38977e+11 5.88993e+09 -5.71572e+10 1.3558e+11 -3.02872e+10 3.15074e+11)
(1.35391e+11 5.48947e+09 -5.46823e+10 1.26174e+11 -1.53668e+10 2.80353e+11)
(1.30002e+11 4.12482e+09 -2.94318e+10 1.18e+11 -2.57171e+09 2.54462e+11)
(1.30024e+11 1.42507e+09 1.25912e+09 1.19586e+11 -3.86327e+09 2.57926e+11)
(1.35275e+11 -7.72313e+08 1.80465e+10 1.28936e+11 -1.91337e+10 2.86679e+11)
(1.39698e+11 -1.5532e+09 1.2537e+10 1.36612e+11 -3.51945e+10 3.14782e+11)
(1.35799e+11 -1.10267e+09 -7.10715e+09 1.3304e+11 -4.06351e+10 3.12607e+11)
(1.19767e+11 -1.05138e+08 -2.30347e+10 1.14461e+11 -3.26708e+10 2.68985e+11)
(9.86159e+10 5.92753e+08 -2.26858e+10 9.02786e+10 -1.87272e+10 2.08237e+11)
(8.2657e+10 6.67799e+08 -8.04895e+09 7.31853e+10 -7.2779e+09 1.64629e+11)
(7.61711e+10 -7.16523e+07 9.35935e+09 6.83175e+10 -3.27304e+09 1.51867e+11)
(7.89839e+10 -1.16358e+09 1.92058e+10 7.45672e+10 -7.28456e+09 1.65889e+11)
(8.51512e+10 -1.52499e+09 1.8268e+10 8.42162e+10 -1.55277e+10 1.87792e+11)
(9.12742e+10 -9.57792e+08 8.97375e+09 9.15083e+10 -2.17789e+10 2.07382e+11)
(9.4736e+10 -1.36625e+08 -4.27547e+09 9.33338e+10 -2.25273e+10 2.16398e+11)
(9.43014e+10 8.01224e+08 -1.42221e+10 8.94988e+10 -1.71998e+10 2.09433e+11)
(9.35653e+10 1.374e+09 -1.28469e+10 8.45331e+10 -5.34138e+09 1.96655e+11)
(9.66283e+10 8.8548e+08 2.31976e+09 8.55317e+10 4.17552e+09 1.94044e+11)
(1.09606e+11 -3.46492e+08 2.26586e+10 9.9318e+10 3.76628e+09 2.2478e+11)
(1.3063e+11 -1.76659e+09 3.22e+10 1.22646e+11 -7.86947e+09 2.85732e+11)
(1.49093e+11 -2.46077e+09 2.26322e+10 1.43297e+11 -2.50799e+10 3.41904e+11)
(1.54851e+11 -1.0873e+09 1.15692e+09 1.49215e+11 -3.64696e+10 3.57335e+11)
(1.41284e+11 1.26461e+09 -1.33475e+10 1.33005e+11 -3.32729e+10 3.1645e+11)
(1.16764e+11 3.02338e+09 -1.0358e+10 1.06511e+11 -2.38808e+10 2.49091e+11)
(8.98572e+10 4.02084e+09 2.61274e+09 8.07175e+10 -1.28412e+10 1.84261e+11)
(6.69418e+10 2.6616e+09 1.37789e+10 6.24875e+10 -4.95701e+09 1.36777e+11)
(5.73389e+10 -2.16057e+09 1.56143e+10 6.48099e+10 -1.14234e+10 1.45167e+11)
(5.88438e+10 -2.73244e+09 -1.22932e+10 1.02812e+11 -4.159e+10 2.75198e+11)
(4.91309e+10 2.4734e+09 1.60386e+10 9.15319e+10 -8.85356e+10 2.58799e+11)
(1.23468e+11 7.54684e+09 -2.67774e+10 1.37015e+11 -4.87377e+10 3.11179e+11)
(1.37658e+11 6.70064e+09 -5.20417e+10 1.40672e+11 -2.99498e+10 3.05569e+11)
(1.34775e+11 6.37846e+09 -4.89172e+10 1.31091e+11 -1.49694e+10 2.73802e+11)
(1.30515e+11 4.37153e+09 -2.48027e+10 1.23467e+11 -2.51686e+09 2.52196e+11)
(1.32103e+11 8.52377e+08 3.59295e+09 1.26797e+11 -3.58318e+09 2.59491e+11)
(1.38625e+11 -1.79702e+09 1.83104e+10 1.38649e+11 -1.83078e+10 2.89531e+11)
(1.43657e+11 -2.34849e+09 1.16009e+10 1.48093e+11 -3.43948e+10 3.17066e+11)
(1.39088e+11 -1.16974e+09 -8.2457e+09 1.4378e+11 -4.04399e+10 3.12554e+11)
(1.22023e+11 4.53297e+08 -2.36944e+10 1.226e+11 -3.3352e+10 2.67501e+11)
(1.00058e+11 1.25815e+09 -2.28541e+10 9.55609e+10 -1.99826e+10 2.068e+11)
(8.37492e+10 1.04626e+09 -8.01786e+09 7.68352e+10 -8.64431e+09 1.64056e+11)
(7.74816e+10 -6.18126e+06 9.08618e+09 7.20915e+10 -4.08916e+09 1.52468e+11)
(8.02143e+10 -1.27571e+09 1.83163e+10 7.90004e+10 -7.05983e+09 1.65767e+11)
(8.59981e+10 -1.77176e+09 1.70854e+10 8.90173e+10 -1.42793e+10 1.8576e+11)
(9.18995e+10 -1.27809e+09 7.95383e+09 9.67207e+10 -2.04167e+10 2.03924e+11)
(9.52373e+10 -2.65049e+08 -4.9058e+09 9.87872e+10 -2.18924e+10 2.12114e+11)
(9.43203e+10 1.00085e+09 -1.42287e+10 9.42666e+10 -1.74317e+10 2.0416e+11)
(9.32708e+10 1.74196e+09 -1.22869e+10 8.83357e+10 -6.63798e+09 1.9153e+11)
(9.64548e+10 1.02623e+09 2.7832e+09 8.8827e+10 2.58925e+09 1.90316e+11)
(1.0969e+11 -7.72497e+08 2.23547e+10 1.03525e+11 2.39413e+09 2.21462e+11)
(1.30903e+11 -2.53342e+09 3.09713e+10 1.29272e+11 -8.96732e+09 2.80705e+11)
(1.48956e+11 -2.97904e+09 2.10738e+10 1.51723e+11 -2.58034e+10 3.32929e+11)
(1.53809e+11 -1.07225e+09 8.16443e+08 1.57059e+11 -3.7094e+10 3.4482e+11)
(1.41072e+11 1.73422e+09 -1.18265e+10 1.39688e+11 -3.48693e+10 3.07253e+11)
(1.17968e+11 3.7175e+09 -7.59316e+09 1.12461e+11 -2.56852e+10 2.45278e+11)
(9.28359e+10 4.76947e+09 6.28822e+09 8.76065e+10 -1.37202e+10 1.85948e+11)
(7.1627e+10 3.4175e+09 1.75655e+10 7.15842e+10 -3.70184e+09 1.43994e+11)
(6.13281e+10 -1.55625e+09 1.74175e+10 7.44036e+10 -8.38372e+09 1.50941e+11)
(5.57222e+10 -2.39816e+09 -1.2251e+10 1.06589e+11 -3.93209e+10 2.57326e+11)
(3.91443e+10 1.60035e+09 1.49975e+10 9.02364e+10 -8.31656e+10 1.99482e+11)
(1.17699e+11 7.17311e+09 -2.32588e+10 1.3721e+11 -4.48002e+10 2.88338e+11)
(1.34772e+11 7.12151e+09 -4.64519e+10 1.42172e+11 -2.66828e+10 2.93972e+11)
(1.33486e+11 6.85988e+09 -4.26056e+10 1.33919e+11 -1.18283e+10 2.67574e+11)
(1.30833e+11 4.42568e+09 -2.01533e+10 1.27906e+11 1.19606e+08 2.51237e+11)
(1.33755e+11 4.61127e+08 5.33661e+09 1.32865e+11 -6.1976e+08 2.61588e+11)
(1.4084e+11 -2.43856e+09 1.76864e+10 1.46066e+11 -1.41916e+10 2.9119e+11)
(1.45737e+11 -2.89943e+09 9.99742e+09 1.56059e+11 -2.96716e+10 3.1638e+11)
(1.40281e+11 -1.37123e+09 -9.48865e+09 1.50713e+11 -3.62809e+10 3.08965e+11)
(1.22559e+11 5.64182e+08 -2.4009e+10 1.27722e+11 -3.07659e+10 2.63263e+11)
(1.00343e+11 1.47717e+09 -2.26014e+10 9.89827e+10 -1.89664e+10 2.03741e+11)
(8.4018e+10 1.21381e+09 -7.76916e+09 7.93819e+10 -8.42011e+09 1.62382e+11)
(7.80027e+10 1.10441e+08 8.83128e+09 7.48227e+10 -3.46817e+09 1.51941e+11)
(8.05478e+10 -1.18788e+09 1.73353e+10 8.20065e+10 -5.1041e+09 1.64425e+11)
(8.57765e+10 -1.80301e+09 1.57304e+10 9.19555e+10 -1.0917e+10 1.82287e+11)
(9.11971e+10 -1.44812e+09 6.75465e+09 9.96016e+10 -1.65916e+10 1.98488e+11)
(9.42294e+10 -3.88071e+08 -5.53951e+09 1.01584e+11 -1.86046e+10 2.05433e+11)
(9.29745e+10 1.03751e+09 -1.39943e+10 9.65721e+10 -1.51035e+10 1.9683e+11)
(9.19463e+10 1.88611e+09 -1.14062e+10 9.02641e+10 -5.66294e+09 1.85164e+11)
(9.54538e+10 1.13591e+09 3.37257e+09 9.08015e+10 2.98693e+09 1.85792e+11)
(1.08704e+11 -8.53894e+08 2.1837e+10 1.06176e+11 3.3587e+09 2.16818e+11)
(1.29511e+11 -2.73442e+09 2.93533e+10 1.33141e+11 -6.61181e+09 2.73266e+11)
(1.46688e+11 -3.10288e+09 1.92603e+10 1.56125e+11 -2.19457e+10 3.20933e+11)
(1.50611e+11 -1.13529e+09 4.53878e+08 1.60596e+11 -3.29414e+10 3.29393e+11)