/*--------------------------------*- C++ -*----------------------------------*\
| =========                 |                                                 |
| \\      /  F ield         | OpenFOAM: The Open Source CFD Toolbox           |
|  \\    /   O peration     | Version:  2106                                  |
|   \\  /    A nd           | Website:  www.openfoam.com                      |
|    \\/     M anipulation  |                                                 |
\*---------------------------------------------------------------------------*/
FoamFile
{
    version     2.0;
    format      ascii;
    arch        "LSB;label=32;scalar=64";
    class       volVectorField;
    location    "155";
    object      D;
}
// * * * * * * * * * * * * * * * * * * * * * * * * * * * * * * * * * * * * * //

dimensions      [0 1 0 0 0 0 0];

internalField   nonuniform List<vector> 
9000
(
(2.69924e-05 3.32737e-05 -2.45987e-06)
(1.40717e-05 3.38091e-05 -7.40608e-06)
(7.87855e-06 3.4981e-05 -8.99833e-06)
(4.15697e-06 3.5925e-05 -8.54646e-06)
(2.69607e-06 2.50946e-05 -5.44506e-06)
(1.92476e-06 3.75908e-05 -7.23668e-06)
(1.20896e-06 2.70125e-05 -4.7047e-06)
(8.70601e-07 3.78667e-05 -7.19331e-06)
(2.51333e-07 3.78076e-05 -7.46285e-06)
(-5.64623e-08 3.6632e-05 -7.52443e-06)
(1.20971e-07 3.49029e-05 -6.31244e-06)
(1.77794e-07 2.63604e-05 -4.48532e-06)
(2.86811e-07 3.50806e-05 -6.1964e-06)
(-2.12868e-07 3.78345e-05 -7.23115e-06)
(-4.84689e-07 3.36044e-05 -6.70784e-06)
(4.2168e-07 3.35724e-05 -6.71893e-06)
(1.49147e-07 3.7448e-05 -7.45513e-06)
(-2.60625e-07 3.55596e-05 -7.85228e-06)
(-1.11586e-07 3.63186e-05 -7.63219e-06)
(-1.01555e-07 3.48913e-05 -6.31349e-06)
(1.07785e-07 2.6501e-05 -4.51812e-06)
(-2.21252e-07 3.80443e-05 -7.05156e-06)
(-8.11811e-07 3.7854e-05 -7.47097e-06)
(-1.33697e-06 3.74864e-05 -7.70037e-06)
(-2.31166e-06 3.69796e-05 -7.97742e-06)
(-3.25261e-06 3.33001e-05 -7.67691e-06)
(-4.20952e-06 3.17932e-05 -8.10448e-06)
(-7.26186e-06 2.40849e-05 -6.32402e-06)
(-1.40512e-05 3.475e-05 -7.21283e-06)
(-2.22985e-05 2.43533e-05 1.17219e-06)
(2.84575e-05 2.53964e-05 1.09534e-06)
(1.3981e-05 2.54785e-05 -3.871e-06)
(7.71477e-06 2.70645e-05 -4.82441e-06)
(4.10614e-06 2.79761e-05 -5.01168e-06)
(2.52009e-06 2.37189e-05 -5.46172e-06)
(1.88072e-06 2.9358e-05 -4.83406e-06)
(1.22275e-06 2.57814e-05 -5.6382e-06)
(6.98415e-07 2.94329e-05 -4.51026e-06)
(2.33807e-07 2.92624e-05 -4.42353e-06)
(-6.17788e-08 2.76734e-05 -4.02882e-06)
(2.4383e-07 2.44961e-05 -2.88561e-06)
(1.72066e-07 2.48107e-05 -5.86257e-06)
(1.6007e-07 2.4635e-05 -2.76427e-06)
(-2.01258e-07 2.92289e-05 -4.51907e-06)
(-4.3363e-07 2.27571e-05 -2.3965e-06)
(3.97573e-07 2.27328e-05 -2.40456e-06)
(8.44572e-08 2.89176e-05 -4.59975e-06)
(-2.86723e-07 2.64003e-05 -4.17562e-06)
(-5.39952e-08 2.73623e-05 -4.14172e-06)
(4.23834e-08 2.44893e-05 -2.88537e-06)
(6.00594e-08 2.49718e-05 -5.79655e-06)
(-3.03278e-07 2.95673e-05 -4.51819e-06)
(-7.17538e-07 2.93203e-05 -4.38974e-06)
(-1.28425e-06 2.90591e-05 -4.48001e-06)
(-2.19163e-06 2.86457e-05 -4.68189e-06)
(-3.14361e-06 2.31498e-05 -3.20319e-06)
(-3.95729e-06 2.17291e-05 -3.616e-06)
(-7.22341e-06 2.34025e-05 -6.18916e-06)
(-1.4127e-05 2.68083e-05 -4.25366e-06)
(-2.7828e-05 2.2799e-05 7.55825e-07)
(2.9465e-05 1.89154e-05 1.8223e-06)
(1.37971e-05 1.82565e-05 -3.04429e-06)
(7.56971e-06 2.00025e-05 -4.3233e-06)
(3.77733e-06 2.09133e-05 -4.67838e-06)
(2.3836e-06 1.85755e-05 -4.04317e-06)
(1.84165e-06 2.22447e-05 -4.8602e-06)
(1.24161e-06 2.13884e-05 -6.01948e-06)
(8.52691e-07 2.2131e-05 -4.45194e-06)
(2.16448e-07 2.18694e-05 -4.28568e-06)
(-1.33574e-07 1.94146e-05 -2.29022e-06)
(-2.40161e-08 2.01975e-05 -5.28478e-06)
(1.66865e-07 2.01987e-05 -6.14331e-06)
(4.1354e-07 2.0259e-05 -5.13566e-06)
(-1.8182e-07 2.1954e-05 -4.60979e-06)
(-4.30659e-07 1.75517e-05 -3.04435e-06)
(4.08679e-07 1.75444e-05 -3.05641e-06)
(1.66546e-09 2.16454e-05 -4.63879e-06)
(-3.08481e-07 1.76626e-05 -1.94439e-06)
(1.38634e-08 1.91262e-05 -2.46242e-06)
(-1.73454e-07 2.02063e-05 -5.28682e-06)
(8.20711e-08 2.0308e-05 -5.9809e-06)
(-1.86077e-09 2.22697e-05 -4.54343e-06)
(-6.3021e-07 2.19189e-05 -4.21997e-06)
(-1.25876e-06 2.1703e-05 -4.25355e-06)
(-2.17498e-06 2.14007e-05 -4.492e-06)
(-3.19603e-06 1.89541e-05 -5.32529e-06)
(-3.99814e-06 1.73681e-05 -5.299e-06)
(-7.00264e-06 1.93784e-05 -6.29117e-06)
(-1.40916e-05 2.01179e-05 -3.82569e-06)
(-3.04136e-05 1.89449e-05 6.60239e-07)
(2.94738e-05 1.4581e-05 -4.16046e-07)
(1.34331e-05 1.32617e-05 -3.53195e-06)
(7.43185e-06 1.51826e-05 -6.80205e-06)
(3.5934e-06 1.59984e-05 -7.19895e-06)
(2.30475e-06 1.63487e-05 -8.31976e-06)
(1.75588e-06 1.73181e-05 -7.42114e-06)
(1.24318e-06 1.71972e-05 -7.97428e-06)
(9.65141e-07 1.7064e-05 -7.00889e-06)
(2.38332e-07 1.68665e-05 -6.94477e-06)
(-2.799e-07 1.6181e-05 -7.2777e-06)
(-2.70588e-07 1.61317e-05 -7.84233e-06)
(1.55766e-07 1.57403e-05 -6.38593e-06)
(5.9845e-07 1.60574e-05 -7.62864e-06)
(-1.1661e-07 1.70324e-05 -7.33402e-06)
(-4.65785e-07 1.53237e-05 -7.95955e-06)
(4.53413e-07 1.5321e-05 -7.96572e-06)
(5.16089e-09 1.67896e-05 -7.40675e-06)
(-2.83282e-07 1.38612e-05 -5.12941e-06)
(-4.42449e-08 1.59773e-05 -7.53959e-06)
(-3.59114e-07 1.61441e-05 -7.83698e-06)
(2.01404e-07 1.58213e-05 -6.18995e-06)
(2.21703e-07 1.7282e-05 -7.15757e-06)
(-5.7435e-07 1.68566e-05 -6.81981e-06)
(-1.2521e-06 1.6662e-05 -6.83084e-06)
(-2.27844e-06 1.64234e-05 -7.08214e-06)
(-3.34194e-06 1.49349e-05 -7.82512e-06)
(-3.92323e-06 1.29574e-05 -5.8782e-06)
(-6.69279e-06 1.54754e-05 -8.15204e-06)
(-1.3977e-05 1.54262e-05 -5.9056e-06)
(-3.05648e-05 1.53249e-05 -1.18617e-06)
(2.88475e-05 1.20137e-05 -3.26444e-06)
(1.34484e-05 1.17166e-05 -7.77163e-06)
(7.28131e-06 1.23195e-05 -9.69734e-06)
(3.48944e-06 1.28544e-05 -1.01023e-05)
(2.27772e-06 1.38821e-05 -1.12442e-05)
(1.70816e-06 1.41955e-05 -1.0235e-05)
(1.22757e-06 1.40046e-05 -1.03504e-05)
(1.00581e-06 1.38905e-05 -9.87496e-06)
(2.11898e-07 1.38341e-05 -9.90641e-06)
(-3.84574e-07 1.35902e-05 -1.0788e-05)
(-3.07658e-07 1.31724e-05 -8.57206e-06)
(1.37185e-07 1.41045e-05 -1.0441e-05)
(6.2544e-07 1.2947e-05 -8.33691e-06)
(-9.50059e-08 1.40383e-05 -1.02743e-05)
(-5.23607e-07 1.29369e-05 -9.23095e-06)
(5.18225e-07 1.29325e-05 -9.22624e-06)
(2.50997e-08 1.39063e-05 -1.04216e-05)
(-3.05485e-07 1.23893e-05 -1.04416e-05)
(-6.74179e-08 1.34864e-05 -1.11266e-05)
(-3.383e-07 1.31816e-05 -8.55603e-06)
(3.05953e-07 1.41848e-05 -1.02451e-05)
(2.73154e-07 1.42628e-05 -1.00653e-05)
(-5.53519e-07 1.37667e-05 -9.74617e-06)
(-1.25552e-06 1.35951e-05 -9.75878e-06)
(-2.37218e-06 1.33734e-05 -9.99258e-06)
(-3.40496e-06 1.20488e-05 -8.56691e-06)
(-3.82048e-06 1.13354e-05 -8.1895e-06)
(-6.51869e-06 1.25429e-05 -1.049e-05)
(-1.38761e-05 1.22866e-05 -8.40237e-06)
(-2.98673e-05 1.26096e-05 -3.56207e-06)
(2.81176e-05 1.03858e-05 -5.41369e-06)
(1.32128e-05 1.05092e-05 -8.04853e-06)
(7.14139e-06 1.04866e-05 -1.18017e-05)
(3.43292e-06 1.06381e-05 -1.23585e-05)
(2.29615e-06 1.17975e-05 -1.23389e-05)
(1.66043e-06 1.2076e-05 -1.22759e-05)
(1.19943e-06 1.14551e-05 -1.23413e-05)
(1.03926e-06 1.17517e-05 -1.19868e-05)
(1.71512e-07 1.18873e-05 -1.20277e-05)
(-4.05906e-07 1.16856e-05 -1.22174e-05)
(-2.46061e-07 1.19199e-05 -1.28648e-05)
(1.04111e-07 1.2582e-05 -1.06748e-05)
(5.85443e-07 1.14795e-05 -1.26932e-05)
(-7.3533e-08 1.21169e-05 -1.24607e-05)
(-5.28529e-07 1.19467e-05 -1.27266e-05)
(5.29761e-07 1.19435e-05 -1.27266e-05)
(-4.17258e-08 1.20946e-05 -1.25602e-05)
(-3.53918e-07 1.08177e-05 -1.03512e-05)
(1.09469e-08 1.16659e-05 -1.25634e-05)
(-2.27036e-07 1.19287e-05 -1.28566e-05)
(3.45461e-07 1.2674e-05 -1.04288e-05)
(2.39805e-07 1.23028e-05 -1.21179e-05)
(-5.59668e-07 1.17556e-05 -1.18794e-05)
(-1.26466e-06 1.16153e-05 -1.18939e-05)
(-2.39954e-06 1.13744e-05 -1.21639e-05)
(-3.37344e-06 1.08662e-05 -1.29385e-05)
(-3.7975e-06 1.07419e-05 -1.07914e-05)
(-6.52414e-06 1.02123e-05 -1.24574e-05)
(-1.38543e-05 9.93028e-06 -1.04349e-05)
(-2.92602e-05 1.04783e-05 -5.55307e-06)
(2.77533e-05 9.08632e-06 -6.75357e-06)
(1.3468e-05 9.86013e-06 -1.11685e-05)
(6.9486e-06 9.0125e-06 -1.31331e-05)
(3.43029e-06 8.7944e-06 -1.38689e-05)
(2.35863e-06 1.0317e-05 -1.11373e-05)
(1.54552e-06 1.0399e-05 -1.35219e-05)
(1.15985e-06 9.14827e-06 -1.38213e-05)
(1.12341e-06 1.00211e-05 -1.33171e-05)
(1.71923e-07 1.03934e-05 -1.32746e-05)
(-4.38184e-07 1.04258e-05 -1.11183e-05)
(-1.24848e-07 1.03673e-05 -1.40313e-05)
(4.41963e-08 1.17015e-05 -1.39448e-05)
(4.69398e-07 9.60442e-06 -1.40986e-05)
(1.74047e-08 1.06238e-05 -1.37443e-05)
(-5.11739e-07 1.09028e-05 -1.14026e-05)
(5.26017e-07 1.08978e-05 -1.14024e-05)
(-7.19215e-08 1.07149e-05 -1.37976e-05)
(-3.84034e-07 1.01109e-05 -1.15706e-05)
(1.03205e-08 1.04877e-05 -1.14732e-05)
(-6.54754e-08 1.03736e-05 -1.4028e-05)
(4.03565e-07 1.18138e-05 -1.36464e-05)
(1.10968e-07 1.07516e-05 -1.33418e-05)
(-5.84424e-07 1.01566e-05 -1.31639e-05)
(-1.28089e-06 1.00734e-05 -1.31935e-05)
(-2.44991e-06 9.75744e-06 -1.35107e-05)
(-3.28159e-06 9.30236e-06 -1.41755e-05)
(-3.81203e-06 1.00612e-05 -1.40734e-05)
(-6.67407e-06 8.08032e-06 -1.3931e-05)
(-1.38889e-05 7.94079e-06 -1.19599e-05)
(-2.86757e-05 8.56424e-06 -6.95585e-06)
(2.7724e-05 7.79908e-06 -7.5222e-06)
(1.36093e-05 8.5827e-06 -1.21769e-05)
(6.75366e-06 7.60265e-06 -1.3969e-05)
(3.52645e-06 7.26002e-06 -1.41941e-05)
(2.46077e-06 9.43798e-06 -1.40122e-05)
(1.29247e-06 8.90407e-06 -1.42782e-05)
(1.10658e-06 7.0721e-06 -1.42951e-05)
(1.2839e-06 8.42121e-06 -1.41538e-05)
(2.78926e-07 9.02904e-06 -1.39876e-05)
(-4.69801e-07 9.73942e-06 -1.39691e-05)
(-9.03839e-08 9.15589e-06 -1.16798e-05)
(-5.48647e-08 1.0249e-05 -1.49304e-05)
(3.66222e-07 8.03045e-06 -1.20694e-05)
(2.52037e-07 9.3005e-06 -1.44312e-05)
(-4.00327e-07 1.05065e-05 -1.1786e-05)
(4.32651e-07 1.04982e-05 -1.17789e-05)
(-1.53386e-07 9.44208e-06 -1.44473e-05)
(-3.36732e-07 9.31786e-06 -1.44121e-05)
(-4.33935e-08 9.86858e-06 -1.43365e-05)
(-2.01835e-09 9.16041e-06 -1.16754e-05)
(4.57728e-07 1.03417e-05 -1.45969e-05)
(-2.8525e-08 9.28697e-06 -1.39995e-05)
(-6.17706e-07 8.64758e-06 -1.39221e-05)
(-1.30345e-06 8.66528e-06 -1.39484e-05)
(-2.51206e-06 8.24158e-06 -1.43516e-05)
(-3.18972e-06 8.00365e-06 -1.18971e-05)
(-3.88572e-06 8.79074e-06 -1.28581e-05)
(-6.87746e-06 6.15394e-06 -1.43824e-05)
(-1.38384e-05 6.35286e-06 -1.26174e-05)
(-2.67187e-05 6.82254e-06 -7.37301e-06)
(2.75158e-05 6.48496e-06 -7.92082e-06)
(1.36729e-05 7.15126e-06 -1.24308e-05)
(6.60253e-06 6.25934e-06 -1.44673e-05)
(3.64447e-06 6.37789e-06 -1.18052e-05)
(2.55831e-06 8.05299e-06 -1.48862e-05)
(1.00205e-06 7.50843e-06 -1.47061e-05)
(1.03958e-06 5.66088e-06 -1.22258e-05)
(1.48715e-06 6.89938e-06 -1.47688e-05)
(4.23591e-07 7.67089e-06 -1.43742e-05)
(-4.14263e-07 8.49434e-06 -1.4818e-05)
(-8.85735e-08 8.55808e-06 -1.18182e-05)
(-1.86278e-07 8.68138e-06 -1.50715e-05)
(2.94093e-07 7.32926e-06 -1.18851e-05)
(5.22694e-07 8.03169e-06 -1.48045e-05)
(-2.14569e-07 9.72551e-06 -1.47065e-05)
(2.62029e-07 9.71432e-06 -1.47051e-05)
(-3.24602e-07 8.13934e-06 -1.47216e-05)
(-2.7741e-07 8.2601e-06 -1.22558e-05)
(-1.05394e-08 8.6792e-06 -1.51358e-05)
(1.21701e-08 8.56346e-06 -1.18235e-05)
(4.18147e-07 8.69255e-06 -1.47004e-05)
(-1.61833e-07 7.83963e-06 -1.43601e-05)
(-6.51835e-07 7.13008e-06 -1.44592e-05)
(-1.32727e-06 7.31361e-06 -1.4404e-05)
(-2.5038e-06 6.78582e-06 -1.48942e-05)
(-3.06252e-06 7.28e-06 -1.23108e-05)
(-4.07845e-06 7.56903e-06 -1.53183e-05)
(-7.09642e-06 4.87969e-06 -1.2311e-05)
(-1.35908e-05 5.3815e-06 -1.14068e-05)
(-2.17282e-05 5.59408e-06 -5.6022e-06)
(2.6022e-05 5.3076e-06 -7.5989e-06)
(1.37008e-05 5.8326e-06 -1.26157e-05)
(6.57348e-06 5.16775e-06 -1.41416e-05)
(3.75563e-06 6.13729e-06 -1.20344e-05)
(2.55827e-06 6.46942e-06 -1.49787e-05)
(7.99967e-07 6.21102e-06 -1.49662e-05)
(9.59919e-07 5.14528e-06 -1.21729e-05)
(1.62859e-06 5.50648e-06 -1.52217e-05)
(5.70903e-07 6.33364e-06 -1.45935e-05)
(-2.86434e-07 6.99894e-06 -1.48545e-05)
(-8.70322e-08 7.48822e-06 -1.47388e-05)
(-2.98664e-07 7.15905e-06 -1.5106e-05)
(2.46554e-07 6.9172e-06 -1.20774e-05)
(6.92442e-07 6.74868e-06 -1.49569e-05)
(-5.39529e-08 8.12885e-06 -1.51495e-05)
(1.08758e-07 8.11258e-06 -1.51547e-05)
(-4.16504e-07 6.76708e-06 -1.48219e-05)
(-2.26919e-07 7.55998e-06 -1.21298e-05)
(2.55399e-08 7.22602e-06 -1.51183e-05)
(4.56266e-09 7.49399e-06 -1.47497e-05)
(3.01075e-07 7.06194e-06 -1.47309e-05)
(-2.9099e-07 6.44271e-06 -1.45873e-05)
(-6.81163e-07 5.65303e-06 -1.48387e-05)
(-1.342e-06 6.04355e-06 -1.46867e-05)
(-2.44821e-06 5.53905e-06 -1.46212e-05)
(-2.96513e-06 6.12193e-06 -1.55361e-05)
(-4.25753e-06 6.01512e-06 -1.54358e-05)
(-7.23217e-06 4.46233e-06 -1.22283e-05)
(-1.38593e-05 4.89515e-06 -1.36288e-05)
(-2.00942e-05 5.04415e-06 -5.43134e-06)
(2.30072e-05 4.54525e-06 -5.81976e-06)
(1.37339e-05 4.59253e-06 -1.2748e-05)
(6.62978e-06 4.57398e-06 -1.20147e-05)
(3.81311e-06 5.43208e-06 -1.50096e-05)
(2.47253e-06 4.83397e-06 -1.50987e-05)
(7.31887e-07 4.99872e-06 -1.51245e-05)
(8.76024e-07 4.9083e-06 -1.24803e-05)
(1.67224e-06 4.40333e-06 -1.48587e-05)
(6.96663e-07 5.06813e-06 -1.47307e-05)
(-1.98971e-07 5.46598e-06 -1.48151e-05)
(-7.55649e-08 5.5637e-06 -1.53843e-05)
(-2.81548e-07 5.67856e-06 -1.51303e-05)
(2.16375e-07 6.34022e-06 -1.27209e-05)
(7.26074e-07 5.41953e-06 -1.50025e-05)
(5.3391e-08 6.33406e-06 -1.49053e-05)
(-3.6109e-09 6.31293e-06 -1.49183e-05)
(-4.03012e-07 5.30491e-06 -1.49128e-05)
(-1.87415e-07 6.40379e-06 -1.49053e-05)
(-3.64438e-08 5.6826e-06 -1.50419e-05)
(-1.034e-08 5.56945e-06 -1.53934e-05)
(2.21021e-07 5.49993e-06 -1.47903e-05)
(-4.0872e-07 5.14075e-06 -1.47387e-05)
(-7.00978e-07 4.42621e-06 -1.44511e-05)
(-1.32165e-06 4.88789e-06 -1.48432e-05)
(-2.45059e-06 4.80322e-06 -1.25078e-05)
(-2.91762e-06 4.41645e-06 -1.56523e-05)
(-4.29147e-06 4.80538e-06 -1.3273e-05)
(-7.28511e-06 4.2551e-06 -1.2499e-05)
(-1.38498e-05 4.49085e-06 -1.22117e-05)
(-2.05118e-05 4.66061e-06 -5.54882e-06)
(2.64568e-05 3.88297e-06 -7.68996e-06)
(1.38648e-05 3.4837e-06 -1.27699e-05)
(6.72075e-06 4.03332e-06 -1.43266e-05)
(3.73754e-06 3.9144e-06 -1.56949e-05)
(2.4098e-06 3.23447e-06 -1.52658e-05)
(8.04601e-07 3.84637e-06 -1.52228e-05)
(8.23567e-07 4.533e-06 -1.3084e-05)
(1.62313e-06 3.8336e-06 -1.26523e-05)
(7.62273e-07 3.89734e-06 -1.48024e-05)
(-2.06561e-07 4.00834e-06 -1.4871e-05)
(-5.70473e-08 3.37318e-06 -1.55053e-05)
(-1.2878e-07 4.23383e-06 -1.51888e-05)
(1.95889e-07 5.09971e-06 -1.54701e-05)
(6.68481e-07 4.02293e-06 -1.5064e-05)
(1.20417e-07 4.65146e-06 -1.47673e-05)
(-9.15048e-08 4.63079e-06 -1.47987e-05)
(-3.86983e-07 3.77392e-06 -1.50771e-05)
(-1.52375e-07 4.52925e-06 -1.55179e-05)
(-1.44936e-07 4.15096e-06 -1.50541e-05)
(-2.19137e-08 3.37822e-06 -1.55151e-05)
(2.33719e-07 4.03903e-06 -1.48924e-05)
(-4.79721e-07 3.94588e-06 -1.48181e-05)
(-7.09143e-07 3.75178e-06 -1.22649e-05)
(-1.23732e-06 3.81932e-06 -1.49356e-05)
(-2.51705e-06 4.20308e-06 -1.48587e-05)
(-2.92204e-06 3.14588e-06 -1.28472e-05)
(-4.20411e-06 3.7659e-06 -1.56266e-05)
(-7.29091e-06 3.79834e-06 -1.32415e-05)
(-1.43029e-05 3.93497e-06 -1.42532e-05)
(-2.25612e-05 4.12617e-06 -5.99719e-06)
(2.82981e-05 2.84221e-06 -8.15381e-06)
(1.39648e-05 2.52081e-06 -1.26753e-05)
(6.71981e-06 2.97658e-06 -1.48891e-05)
(3.60547e-06 2.15879e-06 -1.57533e-05)
(2.41858e-06 1.88802e-06 -1.48406e-05)
(9.77023e-07 2.73448e-06 -1.52648e-05)
(8.65145e-07 3.61285e-06 -1.51459e-05)
(1.52243e-06 3.2866e-06 -1.49267e-05)
(7.11648e-07 2.78597e-06 -1.48619e-05)
(-3.1817e-07 2.68873e-06 -1.49859e-05)
(-3.94169e-08 1.4251e-06 -1.51879e-05)
(6.47839e-08 2.87037e-06 -1.52466e-05)
(1.74073e-07 3.35368e-06 -1.52341e-05)
(6.31472e-07 2.5793e-06 -1.51871e-05)
(1.73389e-07 3.14793e-06 -1.47842e-05)
(-1.76582e-07 3.14078e-06 -1.48243e-05)
(-4.21413e-07 2.28743e-06 -1.52684e-05)
(-1.12007e-07 2.5172e-06 -1.5597e-05)
(-2.64883e-07 2.73227e-06 -1.51601e-05)
(-2.49247e-08 1.42805e-06 -1.51915e-05)
(3.48751e-07 2.71531e-06 -1.50133e-05)
(-4.42994e-07 2.81541e-06 -1.48797e-05)
(-7.10538e-07 3.15888e-06 -1.45882e-05)
(-1.21936e-06 2.76296e-06 -1.49727e-05)
(-2.55926e-06 3.14261e-06 -1.54648e-05)
(-2.97098e-06 2.40629e-06 -1.29846e-05)
(-4.1178e-06 2.49614e-06 -1.57056e-05)
(-7.2766e-06 2.75937e-06 -1.53945e-05)
(-1.45103e-05 2.83339e-06 -1.45747e-05)
(-2.63033e-05 3.15383e-06 -7.64831e-06)
(2.8679e-05 1.67948e-06 -8.06123e-06)
(1.39971e-05 1.5375e-06 -1.25589e-05)
(6.64053e-06 1.74842e-06 -1.47742e-05)
(3.48741e-06 6.9626e-07 -1.51915e-05)
(2.49683e-06 1.11928e-06 -1.27876e-05)
(1.13232e-06 1.66021e-06 -1.52407e-05)
(9.2479e-07 2.3862e-06 -1.31932e-05)
(1.44769e-06 2.16611e-06 -1.54083e-05)
(6.32407e-07 1.683e-06 -1.48802e-05)
(-4.86766e-07 1.53614e-06 -1.50966e-05)
(-2.68839e-08 3.19795e-07 -1.26752e-05)
(2.53742e-07 1.65287e-06 -1.52865e-05)
(1.37193e-07 1.96503e-06 -1.28022e-05)
(6.27316e-07 1.18357e-06 -1.53084e-05)
(2.32584e-07 1.79622e-06 -1.48581e-05)
(-2.62725e-07 1.82093e-06 -1.48784e-05)
(-5.11921e-07 1.09675e-06 -1.47889e-05)
(-6.30287e-08 8.68634e-07 -1.50794e-05)
(-3.59461e-07 1.5076e-06 -1.52853e-05)
(-1.99354e-08 3.19364e-07 -1.267e-05)
(5.19278e-07 1.55285e-06 -1.51169e-05)
(-3.78439e-07 1.69566e-06 -1.48919e-05)
(-7.09443e-07 2.04901e-06 -1.51528e-05)
(-1.23176e-06 1.67672e-06 -1.4944e-05)
(-2.56786e-06 1.89649e-06 -1.53868e-05)
(-3.02835e-06 1.42975e-06 -1.53978e-05)
(-4.10675e-06 1.55678e-06 -1.34507e-05)
(-7.21303e-06 1.64467e-06 -1.28975e-05)
(-1.4456e-05 1.45703e-06 -1.42959e-05)
(-2.50326e-05 2.01353e-06 -6.11354e-06)
(2.86308e-05 5.30427e-07 -7.96746e-06)
(1.39962e-05 5.00912e-07 -1.24934e-05)
(6.54711e-06 5.61096e-07 -1.46367e-05)
(3.45507e-06 6.01513e-08 -1.23634e-05)
(2.59533e-06 4.88522e-07 -1.52397e-05)
(1.21814e-06 5.92871e-07 -1.52842e-05)
(9.59437e-07 9.40333e-07 -1.52897e-05)
(1.37568e-06 7.66145e-07 -1.52939e-05)
(5.81236e-07 5.74085e-07 -1.48676e-05)
(-5.92819e-07 5.20603e-07 -1.51791e-05)
(-1.96387e-08 8.02737e-08 -1.23166e-05)
(3.91051e-07 5.61394e-07 -1.53637e-05)
(7.98132e-08 7.12603e-07 -1.50595e-05)
(5.96503e-07 3.03704e-08 -1.4797e-05)
(3.01115e-07 5.54739e-07 -1.49055e-05)
(-3.1597e-07 6.13459e-07 -1.48976e-05)
(-6.11931e-07 5.21203e-07 -1.25304e-05)
(-2.96781e-08 1.01508e-07 -1.22217e-05)
(-3.70718e-07 4.8006e-07 -1.53673e-05)
(-1.2804e-08 7.28579e-08 -1.23164e-05)
(6.26106e-07 5.23004e-07 -1.51936e-05)
(-3.3795e-07 5.70729e-07 -1.488e-05)
(-7.0841e-07 7.01105e-07 -1.50628e-05)
(-1.24389e-06 5.64924e-07 -1.4915e-05)
(-2.59782e-06 6.42833e-07 -1.52503e-05)
(-3.02296e-06 4.31874e-07 -1.31836e-05)
(-4.06268e-06 6.62823e-07 -1.57248e-05)
(-7.25262e-06 8.62761e-07 -1.27653e-05)
(-1.43116e-05 2.1742e-07 -1.34911e-05)
(-2.81378e-05 7.89423e-07 -7.84979e-06)
(2.86268e-05 -6.0243e-07 -7.96911e-06)
(1.39968e-05 -5.59302e-07 -1.24937e-05)
(6.55163e-06 -5.82432e-07 -1.46369e-05)
(3.46062e-06 -2.02162e-08 -1.2363e-05)
(2.59854e-06 -3.94495e-07 -1.52388e-05)
(1.2184e-06 -4.85764e-07 -1.52833e-05)
(9.57266e-07 -8.40823e-07 -1.52887e-05)
(1.37276e-06 -7.05219e-07 -1.52935e-05)
(5.82113e-07 -5.37118e-07 -1.48672e-05)
(-5.85775e-07 -4.41837e-07 -1.51797e-05)
(-1.98422e-08 1.09103e-07 -1.23222e-05)
(3.78966e-07 -4.88226e-07 -1.53666e-05)
(3.07232e-08 -7.63176e-07 -1.50524e-05)
(5.95477e-07 -5.99347e-07 -1.25231e-05)
(3.49622e-07 -6.25288e-07 -1.48963e-05)
(-2.68569e-07 -5.71925e-07 -1.4907e-05)
(-6.13883e-07 -4.63094e-09 -1.48048e-05)
(-7.18939e-08 -1.00192e-07 -1.22292e-05)
(-3.64098e-07 -4.60893e-07 -1.53661e-05)
(-1.04621e-08 9.19753e-08 -1.23232e-05)
(6.19144e-07 -4.55335e-07 -1.51943e-05)
(-3.41059e-07 -5.57092e-07 -1.48798e-05)
(-7.08631e-07 -6.98927e-07 -1.50628e-05)
(-1.24135e-06 -5.56133e-07 -1.49149e-05)
(-2.59089e-06 -5.86904e-07 -1.52515e-05)
(-3.01806e-06 -2.71011e-07 -1.31872e-05)
(-4.02252e-06 -5.27199e-07 -1.57344e-05)
(-7.31535e-06 -2.25204e-07 -1.50264e-05)
(-1.40595e-05 -4.428e-07 -1.13244e-05)
(-2.80994e-05 -6.45907e-07 -7.83626e-06)
(2.86662e-05 -1.75712e-06 -8.06634e-06)
(1.39989e-05 -1.60243e-06 -1.25598e-05)
(6.65451e-06 -1.77264e-06 -1.47747e-05)
(3.50459e-06 -6.52939e-07 -1.51904e-05)
(2.50669e-06 -1.01625e-06 -1.27848e-05)
(1.1331e-06 -1.54403e-06 -1.5238e-05)
(9.18065e-07 -2.27767e-06 -1.31903e-05)
(1.43854e-06 -2.1011e-06 -1.54069e-05)
(6.35244e-07 -1.6459e-06 -1.48793e-05)
(-4.63486e-07 -1.44989e-06 -1.50955e-05)
(-2.76901e-08 -8.34716e-08 -1.26803e-05)
(2.18313e-07 -1.57406e-06 -1.52839e-05)
(5.72518e-08 -1.98158e-06 -1.28253e-05)
(6.24516e-07 -1.23709e-06 -1.47803e-05)
(3.0736e-07 -1.83002e-06 -1.48833e-05)
(-1.91447e-07 -1.81726e-06 -1.48538e-05)
(-5.17887e-07 -1.10068e-06 -1.53185e-05)
(-1.21568e-07 -9.10901e-07 -1.50578e-05)
(-3.34044e-07 -1.48343e-06 -1.52873e-05)
(-1.29201e-08 -1.07624e-07 -1.26783e-05)
(4.96183e-07 -1.47754e-06 -1.51161e-05)
(-3.88178e-07 -1.68275e-06 -1.48915e-05)
(-7.10109e-07 -2.04743e-06 -1.51531e-05)
(-1.22375e-06 -1.6689e-06 -1.49437e-05)
(-2.54484e-06 -1.83378e-06 -1.53875e-05)
(-3.01703e-06 -1.22371e-06 -1.54054e-05)
(-4.05092e-06 -1.45329e-06 -1.34251e-05)
(-7.26094e-06 -1.48286e-06 -1.34496e-05)
(-1.43779e-05 -1.1734e-06 -1.37725e-05)
(-2.50051e-05 -1.81358e-06 -6.11893e-06)
(2.82746e-05 -2.93146e-06 -8.16286e-06)
(1.39674e-05 -2.59972e-06 -1.26768e-05)
(6.7446e-06 -3.00696e-06 -1.48899e-05)
(3.63591e-06 -2.10838e-06 -1.57516e-05)
(2.4358e-06 -1.766e-06 -1.48359e-05)
(9.7831e-07 -2.5994e-06 -1.52603e-05)
(8.53223e-07 -3.48534e-06 -1.51411e-05)
(1.50585e-06 -3.21299e-06 -1.49249e-05)
(7.16981e-07 -2.74883e-06 -1.48612e-05)
(-2.71648e-07 -2.58968e-06 -1.49737e-05)
(-4.09868e-08 -1.08731e-06 -1.51431e-05)
(2.88898e-09 -2.77946e-06 -1.52313e-05)
(9.87154e-08 -3.34067e-06 -1.52702e-05)
(6.27222e-07 -2.42075e-06 -1.53429e-05)
(2.33868e-07 -3.14941e-06 -1.48238e-05)
(-1.22542e-07 -3.1716e-06 -1.47859e-05)
(-4.32293e-07 -2.51369e-06 -1.51163e-05)
(-1.49253e-07 -2.60947e-06 -1.55652e-05)
(-2.08511e-07 -2.70353e-06 -1.51538e-05)
(-1.28358e-08 -1.11573e-06 -1.51506e-05)
(3.02408e-07 -2.62681e-06 -1.50017e-05)
(-4.60519e-07 -2.80413e-06 -1.48798e-05)
(-7.11662e-07 -3.15829e-06 -1.45895e-05)
(-1.20483e-06 -2.75725e-06 -1.49731e-05)
(-2.51338e-06 -3.0689e-06 -1.54549e-05)
(-2.95795e-06 -2.10562e-06 -1.29451e-05)
(-4.083e-06 -2.42043e-06 -1.56561e-05)
(-7.27296e-06 -2.7568e-06 -1.52656e-05)
(-1.45279e-05 -2.26606e-06 -1.46482e-05)
(-2.63483e-05 -2.89297e-06 -7.64622e-06)
(2.64188e-05 -3.99052e-06 -7.7038e-06)
(1.38678e-05 -3.58611e-06 -1.27717e-05)
(6.75876e-06 -4.07397e-06 -1.43276e-05)
(3.78408e-06 -3.85251e-06 -1.56925e-05)
(2.43558e-06 -3.08127e-06 -1.5259e-05)
(8.06364e-07 -3.68096e-06 -1.52165e-05)
(8.05365e-07 -4.37442e-06 -1.3077e-05)
(1.59698e-06 -3.74598e-06 -1.26507e-05)
(7.70597e-07 -3.86033e-06 -1.48034e-05)
(-1.23949e-07 -3.89772e-06 -1.4833e-05)
(-5.93337e-08 -2.8833e-06 -1.53108e-05)
(-2.27819e-07 -4.1304e-06 -1.51492e-05)
(1.30099e-07 -5.07482e-06 -1.5498e-05)
(6.63054e-07 -3.85479e-06 -1.52137e-05)
(1.57763e-07 -4.63849e-06 -1.47954e-05)
(-6.44621e-08 -4.67912e-06 -1.47722e-05)
(-4.04739e-07 -4.0256e-06 -1.49342e-05)
(-1.60468e-07 -4.66697e-06 -1.55003e-05)
(-4.0509e-08 -4.12576e-06 -1.50218e-05)
(-3.75409e-09 -2.91613e-06 -1.53241e-05)
(1.51217e-07 -3.93818e-06 -1.48552e-05)
(-5.06568e-07 -3.93713e-06 -1.48204e-05)
(-7.10741e-07 -3.7521e-06 -1.22684e-05)
(-1.21493e-06 -3.81683e-06 -1.49382e-05)
(-2.43621e-06 -4.12097e-06 -1.4823e-05)
(-2.91062e-06 -2.70606e-06 -1.26584e-05)
(-4.20412e-06 -3.70775e-06 -1.55654e-05)
(-7.22185e-06 -3.76349e-06 -1.30825e-05)
(-1.43288e-05 -3.19894e-06 -1.41904e-05)
(-2.27091e-05 -3.80873e-06 -5.94971e-06)
(2.29489e-05 -4.67887e-06 -5.83982e-06)
(1.37364e-05 -4.73157e-06 -1.27497e-05)
(6.68473e-06 -4.63043e-06 -1.20157e-05)
(3.88003e-06 -5.35317e-06 -1.50065e-05)
(2.50854e-06 -4.63366e-06 -1.50898e-05)
(7.34072e-07 -4.78898e-06 -1.51164e-05)
(8.50025e-07 -4.70291e-06 -1.24711e-05)
(1.63327e-06 -4.29483e-06 -1.48575e-05)
(7.07496e-07 -5.0309e-06 -1.47346e-05)
(-6.28798e-08 -5.35841e-06 -1.47412e-05)
(-7.8377e-08 -4.93817e-06 -1.50317e-05)
(-4.3462e-07 -5.57635e-06 -1.50562e-05)
(1.54774e-07 -6.31643e-06 -1.27378e-05)
(7.19773e-07 -5.30065e-06 -1.50556e-05)
(7.13295e-08 -6.31943e-06 -1.49177e-05)
(-1.15212e-09 -6.36668e-06 -1.4908e-05)
(-4.30769e-07 -5.52925e-06 -1.48704e-05)
(-1.70013e-07 -6.58947e-06 -1.49072e-05)
(1.36936e-07 -5.68268e-06 -1.49731e-05)
(1.5426e-08 -4.97544e-06 -1.50435e-05)
(8.49862e-08 -5.40068e-06 -1.47172e-05)
(-4.45862e-07 -5.13471e-06 -1.47444e-05)
(-7.03055e-07 -4.42667e-06 -1.44577e-05)
(-1.29076e-06 -4.88899e-06 -1.48491e-05)
(-2.31865e-06 -4.72866e-06 -1.2436e-05)
(-2.91012e-06 -3.86017e-06 -1.53059e-05)
(-4.33489e-06 -4.77474e-06 -1.3195e-05)
(-7.13696e-06 -4.14826e-06 -1.23867e-05)
(-1.38875e-05 -3.62661e-06 -1.19224e-05)
(-2.07851e-05 -4.29124e-06 -5.442e-06)
(2.59347e-05 -5.47638e-06 -7.62754e-06)
(1.37017e-05 -6.02735e-06 -1.26173e-05)
(6.65075e-06 -5.24762e-06 -1.41429e-05)
(3.84894e-06 -6.03411e-06 -1.20302e-05)
(2.60663e-06 -6.20012e-06 -1.49668e-05)
(8.02481e-07 -5.93929e-06 -1.49553e-05)
(9.2419e-07 -4.87162e-06 -1.21608e-05)
(1.57232e-06 -5.3684e-06 -1.52204e-05)
(5.8114e-07 -6.29451e-06 -1.45984e-05)
(-8.48966e-08 -6.92616e-06 -1.47574e-05)
(-9.01167e-08 -6.95922e-06 -1.49104e-05)
(-5.18057e-07 -7.08944e-06 -1.50096e-05)
(1.84886e-07 -6.89889e-06 -1.20869e-05)
(6.85611e-07 -6.67562e-06 -1.49648e-05)
(-4.97648e-08 -8.11727e-06 -1.51525e-05)
(9.05934e-08 -8.16731e-06 -1.51544e-05)
(-4.58665e-07 -6.97493e-06 -1.48287e-05)
(-1.90995e-07 -7.80762e-06 -1.21445e-05)
(2.83681e-07 -7.2911e-06 -1.50271e-05)
(3.99076e-08 -7.00119e-06 -1.49238e-05)
(9.96153e-08 -6.99497e-06 -1.46348e-05)
(-3.37169e-07 -6.43799e-06 -1.45946e-05)
(-6.83702e-07 -5.6523e-06 -1.4848e-05)
(-1.30426e-06 -6.0469e-06 -1.46942e-05)
(-2.25492e-06 -5.50479e-06 -1.45263e-05)
(-2.96415e-06 -5.68859e-06 -1.57152e-05)
(-4.34801e-06 -6.04947e-06 -1.53461e-05)
(-6.99369e-06 -4.3074e-06 -1.21259e-05)
(-1.40177e-05 -4.09027e-06 -1.38096e-05)
(-2.05047e-05 -4.63149e-06 -5.2818e-06)
(2.73869e-05 -6.69935e-06 -7.96212e-06)
(1.36707e-05 -7.42967e-06 -1.24345e-05)
(6.70962e-06 -6.37304e-06 -1.44701e-05)
(3.77219e-06 -6.24092e-06 -1.17988e-05)
(2.62141e-06 -7.68424e-06 -1.48679e-05)
(1.00475e-06 -7.15257e-06 -1.46893e-05)
(9.91852e-07 -5.2892e-06 -1.22072e-05)
(1.40769e-06 -6.72113e-06 -1.4765e-05)
(4.25949e-07 -7.62772e-06 -1.43762e-05)
(-1.68407e-07 -8.49152e-06 -1.47291e-05)
(-9.16577e-08 -8.69077e-06 -1.42617e-05)
(-4.51308e-07 -8.67917e-06 -1.49834e-05)
(2.33615e-07 -7.31536e-06 -1.18889e-05)
(5.15586e-07 -7.98743e-06 -1.48028e-05)
(-2.19856e-07 -9.71669e-06 -1.47061e-05)
(2.25435e-07 -9.76999e-06 -1.47089e-05)
(-3.87038e-07 -8.35737e-06 -1.47418e-05)
(-2.32114e-07 -8.596e-06 -1.22774e-05)
(3.16411e-07 -8.85414e-06 -1.50555e-05)
(5.94089e-08 -8.73732e-06 -1.42697e-05)
(1.72489e-07 -8.69139e-06 -1.46123e-05)
(-2.11933e-07 -7.83392e-06 -1.4365e-05)
(-6.54769e-07 -7.12689e-06 -1.44693e-05)
(-1.28819e-06 -7.31672e-06 -1.44092e-05)
(-2.27251e-06 -6.82755e-06 -1.48079e-05)
(-3.07179e-06 -7.54441e-06 -1.47643e-05)
(-4.19073e-06 -7.71954e-06 -1.52405e-05)
(-6.77829e-06 -4.6973e-06 -1.22133e-05)
(-1.4018e-05 -5.12521e-06 -1.37569e-05)
(-2.22386e-05 -5.14571e-06 -5.43857e-06)
(2.75371e-05 -8.07022e-06 -7.58321e-06)
(1.36028e-05 -8.98401e-06 -1.21931e-05)
(6.90038e-06 -7.76352e-06 -1.3977e-05)
(3.69859e-06 -7.07744e-06 -1.41812e-05)
(2.54093e-06 -8.92902e-06 -1.39747e-05)
(1.29513e-06 -8.43797e-06 -1.42466e-05)
(1.04448e-06 -6.56266e-06 -1.42575e-05)
(1.1738e-06 -8.191e-06 -1.41424e-05)
(2.63073e-07 -8.98278e-06 -1.39911e-05)
(-2.70108e-07 -9.8051e-06 -1.38749e-05)
(-9.33346e-08 -9.77512e-06 -1.18833e-05)
(-2.7522e-07 -1.03119e-05 -1.48366e-05)
(3.12823e-07 -8.02053e-06 -1.2075e-05)
(2.44782e-07 -9.27133e-06 -1.44306e-05)
(-4.12321e-07 -1.04981e-05 -1.17849e-05)
(3.77992e-07 -1.05558e-05 -1.17839e-05)
(-2.43739e-07 -9.69658e-06 -1.44726e-05)
(-2.92512e-07 -9.78321e-06 -1.44545e-05)
(2.68915e-07 -1.01634e-05 -1.42581e-05)
(5.96777e-08 -9.8252e-06 -1.18822e-05)
(2.58435e-07 -1.04027e-05 -1.45031e-05)
(-7.4485e-08 -9.28033e-06 -1.40065e-05)
(-6.20893e-07 -8.6416e-06 -1.39312e-05)
(-1.27134e-06 -8.66778e-06 -1.39556e-05)
(-2.336e-06 -8.35759e-06 -1.42608e-05)
(-3.21227e-06 -8.80356e-06 -1.21168e-05)
(-3.92792e-06 -9.08474e-06 -1.27886e-05)
(-6.54077e-06 -5.92677e-06 -1.42721e-05)
(-1.39465e-05 -6.4541e-06 -1.28034e-05)
(-2.71989e-05 -6.2973e-06 -7.17148e-06)
(2.74899e-05 -9.42385e-06 -6.84576e-06)
(1.34567e-05 -1.04325e-05 -1.12303e-05)
(7.14602e-06 -9.23543e-06 -1.31557e-05)
(3.65744e-06 -8.55354e-06 -1.38401e-05)
(2.45719e-06 -9.62064e-06 -1.10436e-05)
(1.5479e-06 -9.79652e-06 -1.34557e-05)
(1.08158e-06 -8.45517e-06 -1.37281e-05)
(9.74023e-07 -9.72784e-06 -1.32878e-05)
(1.31197e-07 -1.03475e-05 -1.3276e-05)
(-3.10187e-07 -1.05268e-05 -1.10487e-05)
(-1.27375e-07 -1.10111e-05 -1.37099e-05)
(-1.05639e-07 -1.17953e-05 -1.38749e-05)
(4.26951e-07 -9.5992e-06 -1.4103e-05)
(1.03688e-08 -1.06017e-05 -1.3745e-05)
(-5.28417e-07 -1.08922e-05 -1.14013e-05)
(4.53002e-07 -1.09573e-05 -1.14074e-05)
(-1.99426e-07 -1.10274e-05 -1.3836e-05)
(-3.47204e-07 -1.07558e-05 -1.1666e-05)
(2.90668e-07 -1.08804e-05 -1.14361e-05)
(1.24962e-08 -1.10656e-05 -1.37104e-05)
(2.76209e-07 -1.1901e-05 -1.35758e-05)
(7.40635e-08 -1.07456e-05 -1.3347e-05)
(-5.87625e-07 -1.01484e-05 -1.317e-05)
(-1.26056e-06 -1.0076e-05 -1.31985e-05)
(-2.35761e-06 -9.9132e-06 -1.34451e-05)
(-3.32543e-06 -1.01904e-05 -1.38858e-05)
(-3.75379e-06 -1.05033e-05 -1.40648e-05)
(-6.3271e-06 -7.75775e-06 -1.38067e-05)
(-1.38133e-05 -7.91015e-06 -1.16067e-05)
(-2.90598e-05 -7.88125e-06 -6.70922e-06)
(2.77649e-05 -1.07934e-05 -5.55289e-06)
(1.31987e-05 -1.12905e-05 -8.24044e-06)
(7.3968e-06 -1.07832e-05 -1.18568e-05)
(3.72061e-06 -1.03302e-05 -1.22959e-05)
(2.41174e-06 -1.08817e-05 -1.20981e-05)
(1.66227e-06 -1.13212e-05 -1.21398e-05)
(1.10528e-06 -1.05478e-05 -1.21022e-05)
(8.44899e-07 -1.13894e-05 -1.19224e-05)
(1.05548e-07 -1.18452e-05 -1.20266e-05)
(-3.35657e-07 -1.17927e-05 -1.21849e-05)
(-2.47929e-07 -1.23998e-05 -1.26913e-05)
(1.17346e-08 -1.26762e-05 -1.06405e-05)
(5.54149e-07 -1.14789e-05 -1.26949e-05)
(-7.98466e-08 -1.20981e-05 -1.24614e-05)
(-5.47901e-07 -1.19316e-05 -1.27244e-05)
(4.39495e-07 -1.20034e-05 -1.27306e-05)