/*--------------------------------*- C++ -*----------------------------------*\
| =========                 |                                                 |
| \\      /  F ield         | OpenFOAM: The Open Source CFD Toolbox           |
|  \\    /   O peration     | Version:  2106                                  |
|   \\  /    A nd           | Website:  www.openfoam.com                      |
|    \\/     M anipulation  |                                                 |
\*---------------------------------------------------------------------------*/
FoamFile
{
    version     2.0;
    format      ascii;
    arch        "LSB;label=32;scalar=64";
    class       volSymmTensorField;
    location    "155";
    object      epsilon;
}
// * * * * * * * * * * * * * * * * * * * * * * * * * * * * * * * * * * * * * //

dimensions      [0 0 0 0 0 0 0];

internalField   nonuniform List<symmTensor> 
9000
(
(-0.0890993 0.00393154 0.0640165 -0.141013 0.0324248 -0.109746)
(-0.0286707 0.00029902 0.116204 -0.145546 0.0298355 -0.165379)
(-0.0148721 0.00017999 0.0707393 -0.137048 0.0294879 -0.202089)
(-0.00777373 -0.00389761 0.0416091 -0.139432 0.0331035 -0.200086)
(-0.00334832 -3.50979e-05 0.0249914 -0.0938495 0.0322066 -0.188713)
(-0.00223065 0.000554069 0.0168781 -0.146835 0.0387685 -0.183214)
(-0.00158124 0.000155166 0.0107446 -0.0959353 0.0331248 -0.177006)
(-0.00143645 0.00340245 0.00499192 -0.148883 0.0382428 -0.181714)
(-0.00139059 -0.000528751 0.00308174 -0.148889 0.0369828 -0.185282)
(-0.000195543 -0.00110921 0.00231042 -0.151706 0.0383579 -0.187682)
(0.000351384 -0.00339113 0.00397611 -0.163988 0.0430709 -0.182191)
(0.000248761 4.51776e-05 0.00154212 -0.0997415 0.0329596 -0.172813)
(-0.000585993 0.00382751 -0.000666609 -0.164586 0.0432426 -0.179949)
(-0.00115725 -0.000510043 -0.001171 -0.150013 0.0379017 -0.182663)
(0.000951822 -0.00140681 -0.00140358 -0.165773 0.0431612 -0.189245)
(0.000950754 0.00135092 0.000775138 -0.165671 0.0431507 -0.189433)
(-0.00102346 0.000502588 -0.00104952 -0.148833 0.0368442 -0.185415)
(-0.000391099 -0.000521374 -0.00171694 -0.152675 0.0357587 -0.189767)
(0.000238605 -3.46031e-05 0.000701383 -0.151446 0.0377283 -0.18915)
(0.000329057 -0.0031418 0.00152448 -0.163934 0.0431017 -0.182247)
(-0.000179546 0.00100338 -0.00161862 -0.0994556 0.0329392 -0.172951)
(-0.00137939 0.00394973 -0.00569472 -0.149733 0.0387469 -0.179531)
(-0.00167358 0.000144286 -0.00780468 -0.148708 0.0370158 -0.185398)
(-0.00224978 -0.000130203 -0.0120587 -0.146996 0.0361591 -0.188707)
(-0.00287345 -0.00111974 -0.0184419 -0.145093 0.0352161 -0.193195)
(-0.00284679 -0.00153625 -0.0267807 -0.156695 0.0377618 -0.201813)
(-0.00601388 -0.00251021 -0.0376735 -0.154427 0.0352848 -0.205537)
(-0.0147625 0.00125235 -0.0684257 -0.084378 0.0255129 -0.195463)
(-0.022555 -0.000182649 -0.118642 -0.144216 0.0345231 -0.164755)
(-0.0996024 -0.0190228 -0.0724526 -0.0986687 0.0313603 -0.0776585)
(-0.134749 0.00470374 0.0708511 -0.107687 0.101537 0.0410225)
(-0.031114 0.00022129 0.116443 -0.116645 0.0987901 -0.0219637)
(-0.0148123 0.000715014 0.0690453 -0.112339 0.101449 -0.0417029)
(-0.00779203 -0.00393287 0.0352489 -0.112587 0.109567 -0.0477284)
(-0.00333813 -0.00013529 0.0226006 -0.0488937 0.120922 -0.0828289)
(-0.001946 0.00123522 0.0158103 -0.115096 0.120511 -0.0456346)
(-0.00177345 0.000178545 0.0112091 -0.0421807 0.116954 -0.0666877)
(-0.00148342 0.00254357 0.00942569 -0.118018 0.118609 -0.0394326)
(-0.00114029 -0.00145038 0.0036829 -0.119536 0.115956 -0.0387629)
(1.50344e-05 -0.00386393 0.00136663 -0.129131 0.123594 -0.0515059)
(0.000350766 -0.00269073 -0.00146639 -0.11029 0.117629 -0.062373)
(-0.00012564 6.32431e-05 0.00151059 -0.0462123 0.11769 -0.0746803)
(-0.000559985 0.00378884 0.004066 -0.111162 0.117698 -0.0590627)
(-0.000890549 -0.00129201 -0.000329241 -0.119103 0.117767 -0.0418735)
(0.000898245 -0.00466943 -0.000774361 -0.120395 0.122756 -0.0740912)
(0.000777131 0.0045716 0.000507041 -0.12021 0.122719 -0.0742631)
(-0.00102644 0.00219754 -0.000770136 -0.118519 0.115645 -0.0433568)
(-0.000207679 -0.00134594 -0.00140083 -0.134227 0.119275 -0.0556431)
(0.000493659 -0.000962779 -0.00039865 -0.128943 0.122272 -0.0543508)
(0.000171082 -0.00206249 -0.00361134 -0.110138 0.11769 -0.0623919)
(-0.000518493 0.00371205 -0.00160614 -0.0464481 0.117756 -0.0726885)
(-0.0011664 0.0040841 -0.00034299 -0.118309 0.119678 -0.0396898)
(-0.00147146 0.000299863 -0.00641382 -0.119513 0.115982 -0.0376536)
(-0.00221113 -0.000212623 -0.0115571 -0.118375 0.114393 -0.0392338)
(-0.00278903 -0.00391942 -0.017633 -0.116842 0.112702 -0.0436137)
(-0.0026485 -0.00497527 -0.0260626 -0.107595 0.107362 -0.0684674)
(-0.00611971 0.000982152 -0.0406903 -0.108188 0.104347 -0.0765302)
(-0.0152545 0.00478139 -0.0681053 -0.0352992 0.102431 -0.0734456)
(-0.0309068 -0.000603885 -0.118416 -0.109741 0.108443 -0.0240382)
(-0.14667 -0.0182273 -0.0792295 -0.0405634 0.105508 0.0295055)
(-0.149995 0.00141344 0.0742423 -0.0811153 0.0997513 0.0716504)
(-0.032843 -0.00123948 0.115454 -0.0916262 0.102866 -0.0023189)
(-0.0150297 0.000931709 0.0668476 -0.0891146 0.0975496 -0.00993947)
(-0.00777917 -0.00299301 0.0337356 -0.0898329 0.10661 -0.0181451)
(-0.00290353 0.000191019 0.0212996 -0.0552765 0.122603 -0.0618009)
(-0.00171299 0.00164161 0.0143047 -0.0902994 0.119167 -0.0219257)
(-0.00148343 -8.65754e-06 0.0113892 -0.0643816 0.126625 -0.0375563)
(-0.00153774 0.00136099 0.0104016 -0.0927668 0.116202 -0.0141706)
(-0.0014794 -0.00202033 0.00462599 -0.0929696 0.113028 -0.0132806)
(-0.000360696 -0.00207192 -0.0014632 -0.0861932 0.112567 -0.0363491)
(0.000450657 -0.00134098 -0.00396833 -0.062733 0.112843 -0.0464339)
(0.000656334 -1.50081e-05 0.00148155 -0.0680286 0.135593 -0.0605569)
(-0.000523026 0.00296042 0.00523176 -0.0643326 0.112596 -0.0420515)
(-0.0012663 -0.00171302 0.000905699 -0.0914736 0.115508 -0.0193674)
(0.000885747 -0.00342783 -0.00174315 -0.0557504 0.10937 -0.0664705)
(0.000648486 0.00327967 0.00166612 -0.055589 0.109321 -0.0665037)
(-0.00107574 -0.000208679 0.00149855 -0.0909601 0.113195 -0.0214093)
(1.82969e-05 -0.00187648 -0.000444448 -0.0940432 0.114634 -0.0502526)
(0.00020254 0.00194434 -0.00387923 -0.0853876 0.111269 -0.0412635)
(0.000102311 -0.000619312 -0.00560983 -0.0625893 0.112913 -0.0462661)
(0.00025739 0.00207759 0.000780323 -0.0686282 0.135541 -0.0572998)
(-0.00106842 0.00317686 0.00132374 -0.0921396 0.117754 -0.0166148)
(-0.00188534 0.000111913 -0.00560501 -0.0934777 0.112907 -0.0109945)
(-0.00231716 -0.000268047 -0.011352 -0.0929783 0.111185 -0.0117168)
(-0.00290591 -0.00238723 -0.0196705 -0.0916671 0.109552 -0.0162378)
(-0.00273474 -0.00376823 -0.0279617 -0.0616119 0.101228 -0.0473079)
(-0.00570992 0.000445981 -0.0383977 -0.0657881 0.105846 -0.064153)
(-0.0151401 0.00405217 -0.0641655 -0.0594531 0.111422 -0.0398674)
(-0.0351165 0.000237227 -0.116618 -0.0853657 0.106568 0.00652447)
(-0.153137 -0.00601234 -0.0798981 -0.0560564 0.114444 0.0557767)
(-0.14879 -0.00214802 0.0732225 -0.0517627 0.0880357 0.0347998)
(-0.0330629 -0.000856429 0.114138 -0.0490489 0.0876939 -0.0483292)
(-0.0147595 0.000970958 0.063894 -0.0576226 0.0863962 -0.0465052)
(-0.00769065 -0.000204994 0.0313791 -0.0604418 0.0941817 -0.0539002)
(-0.00275628 0.00059274 0.0206813 -0.0352005 0.103911 -0.0870602)
(-0.00159236 0.000135836 0.0156634 -0.0603686 0.10662 -0.0590505)
(-0.00118611 -0.000243238 0.0113461 -0.0553785 0.113686 -0.0644319)
(-0.00150728 0.000326109 0.00990985 -0.061804 0.1033 -0.0519417)
(-0.00186756 -0.000679266 0.00264645 -0.060265 0.100771 -0.0521882)
(-0.00076338 -0.00149235 -0.00209802 -0.0436832 0.0934925 -0.0743222)
(0.000653499 -0.00139423 -0.0010622 -0.0526883 0.11637 -0.0878088)
(0.00130356 -0.000167027 0.00144051 -0.0457066 0.118745 -0.103439)
(-0.000408565 0.00176373 0.00384969 -0.0548396 0.115505 -0.0828756)
(-0.00159635 -0.000224672 -0.000757938 -0.0593677 0.103865 -0.0595438)
(0.000855035 -0.00163214 -0.00362361 -0.0346113 0.106737 -0.106404)
(0.000706419 0.00151018 0.00360186 -0.0345888 0.106721 -0.106332)
(-0.00110504 -0.00100696 0.00257875 -0.0580429 0.101776 -0.0626049)
(-7.41087e-05 -0.000598006 -0.00227281 -0.0395495 0.0892745 -0.101466)
(-0.000113748 0.00140737 -0.00325819 -0.0422991 0.0925807 -0.0809035)
(0.000368473 -0.000735105 -0.00217563 -0.0526851 0.116473 -0.0875002)
(0.000871225 0.00169301 0.00132049 -0.0459234 0.11852 -0.0995571)
(-0.00116363 0.00180774 0.000296271 -0.060052 0.105494 -0.0560851)
(-0.0022107 -0.000177417 -0.00521859 -0.0611414 0.100404 -0.0493176)
(-0.00255613 -0.000312725 -0.0112632 -0.0608093 0.0987139 -0.0496805)
(-0.00313477 -0.00203485 -0.0200198 -0.0602049 0.0974425 -0.0542424)
(-0.00246719 -0.00338302 -0.02707 -0.0517893 0.105421 -0.0879381)
(-0.00502628 0.00107161 -0.0368329 -0.045245 0.104754 -0.115876)
(-0.0150807 0.00366639 -0.0629765 -0.0512661 0.100014 -0.0651635)
(-0.035808 0.000695178 -0.114593 -0.0587349 0.0941229 -0.02307)
(-0.148716 0.000949542 -0.0754615 -0.0475148 0.102563 0.026752)
(-0.14149 -0.00276827 0.0668402 -0.0314638 0.0826025 -0.0124355)
(-0.0323493 -0.000596777 0.112743 -0.0206443 0.0856158 -0.0935317)
(-0.0149385 -0.000235888 0.0637145 -0.0352195 0.0820731 -0.0917425)
(-0.00750538 0.000570143 0.0309548 -0.0402018 0.0871462 -0.0987102)
(-0.00267191 0.000973579 0.0205065 -0.0341343 0.104535 -0.121634)
(-0.00157523 -0.000266034 0.015632 -0.0393154 0.0993646 -0.103181)
(-0.00105353 -0.00039287 0.0111352 -0.0430662 0.101308 -0.102182)
(-0.00152351 0.00015008 0.00934849 -0.0398418 0.0960717 -0.0972143)
(-0.00208557 -0.000475794 0.00202366 -0.0373441 0.0951641 -0.0985944)
(-0.000779333 -0.000968822 -0.000913713 -0.0337158 0.0982414 -0.117996)
(0.000782639 0.000477721 -0.00150544 -0.0315886 0.101802 -0.137142)
(0.00139965 -0.000362727 0.00131223 -0.0236872 0.110315 -0.146743)
(-0.000348286 -9.83988e-05 0.00457919 -0.0343339 0.0997971 -0.131915)
(-0.00172357 0.000153929 -0.000977724 -0.0368661 0.0980427 -0.106572)
(0.000919847 -0.00106464 -0.00249427 -0.0253277 0.104251 -0.152829)
(0.000823059 0.00101341 0.00247214 -0.0253306 0.104198 -0.152713)
(-0.00123557 -0.000583213 -0.000629247 -0.0352126 0.0969791 -0.11011)
(-0.000138776 -0.00057988 -0.00278712 -0.0228259 0.095211 -0.14979)
(-4.92225e-05 0.000801192 0.000296109 -0.0323353 0.0980481 -0.125504)
(0.000560057 0.00101916 -0.00215061 -0.0316156 0.101855 -0.136796)
(0.000917182 0.00135107 0.000202163 -0.0236055 0.110338 -0.142432)
(-0.00128921 -0.000245741 0.00120976 -0.0373438 0.0994181 -0.101971)
(-0.00229301 -0.000445725 -0.00509908 -0.0382578 0.0943141 -0.0954814)
(-0.002728 -0.000342097 -0.0112397 -0.0378501 0.0927782 -0.0957468)
(-0.00322417 -0.00161384 -0.0187842 -0.0378675 0.0914414 -0.100347)
(-0.00217244 -0.00164659 -0.0268862 -0.0305155 0.0917429 -0.137879)
(-0.0046706 0.000842044 -0.0370567 -0.0166161 0.0929796 -0.168291)
(-0.0150834 0.00134581 -0.0617412 -0.039473 0.0893594 -0.102083)
(-0.0350229 0.00051016 -0.113095 -0.0412192 0.0850327 -0.0620056)
(-0.141045 0.00269047 -0.06953 -0.0363493 0.0917927 -0.0132125)
(-0.134787 -0.00196231 0.0629996 -0.0219556 0.0795254 -0.0472814)
(-0.0314643 0.00014886 0.111569 -0.0139235 0.0836164 -0.121581)
(-0.0146698 -0.00115091 0.0613048 -0.0248022 0.0792158 -0.124222)
(-0.00726785 0.000761328 0.0315577 -0.0304502 0.0812427 -0.1338)
(-0.00265874 0.00138184 0.0206993 -0.0267376 0.106899 -0.15427)
(-0.00164508 -0.000866693 0.0144733 -0.0284737 0.0935787 -0.135499)
(-0.000931743 -0.000497175 0.0108296 -0.0364226 0.0899376 -0.133223)
(-0.00154188 0.000765142 0.00926028 -0.0290201 0.0903948 -0.130175)
(-0.00216776 -0.000199519 0.00240013 -0.0258053 0.0914647 -0.13213)
(-0.00062636 -0.000176584 -0.00262723 -0.0237326 0.104649 -0.155009)
(0.000765026 0.00135783 -0.000274169 -0.0210382 0.0893193 -0.167539)
(0.00124726 -0.000678965 0.0010413 -0.0180223 0.102959 -0.175006)
(-0.000266466 -0.000933932 0.00276538 -0.0250695 0.0854113 -0.162537)
(-0.00167096 0.000771929 -7.04796e-05 -0.0256093 0.0939226 -0.140444)
(0.000904941 -8.5535e-05 -0.00333729 -0.0152553 0.103825 -0.185432)
(0.000730205 0.000140118 0.00338271 -0.0152605 0.103746 -0.185239)
(-0.00132552 -0.00120819 0.00155672 -0.0239357 0.0939848 -0.143881)
(7.9009e-05 -0.000616071 -0.00242602 -0.0170887 0.101488 -0.188073)
(0.000190323 0.00112472 -0.00252729 -0.0224903 0.105088 -0.163081)
(0.000501771 0.00177915 -0.000527103 -0.0210607 0.089327 -0.167176)
(0.000700261 0.000646676 0.00210431 -0.0177831 0.103378 -0.170196)
(-0.00135769 -0.00129699 -0.000553138 -0.0263335 0.0951194 -0.13415)
(-0.0022567 -0.000631534 -0.0051918 -0.0270757 0.0900467 -0.128726)
(-0.00275981 -0.00038098 -0.0112988 -0.0264127 0.088754 -0.129117)
(-0.00316317 -0.000853347 -0.0205783 -0.0271195 0.0870161 -0.133782)
(-0.00209693 -1.17416e-05 -0.0269871 -0.0205986 0.0799899 -0.168428)
(-0.00472605 -0.000458725 -0.0348706 -0.00955664 0.0820155 -0.195888)
(-0.0150852 -0.00119138 -0.0611441 -0.0334694 0.0794296 -0.132249)
(-0.0341041 0.000151206 -0.112667 -0.0325934 0.0758123 -0.0937945)
(-0.133951 0.00264744 -0.0652645 -0.0303399 0.0827091 -0.0456408)
(-0.129604 -0.000160671 0.058534 -0.0194008 0.0745081 -0.0679146)
(-0.0312071 0.00143151 0.11079 -0.0144484 0.071888 -0.1273)
(-0.0150565 -0.00225326 0.0614364 -0.02163 0.0735536 -0.143889)
(-0.00688495 0.00132913 0.0335124 -0.0253358 0.0760056 -0.161278)
(-0.00282716 0.00182079 0.0211677 -0.0176961 0.0889777 -0.177907)
(-0.00179817 -0.00225642 0.011729 -0.0237897 0.0858547 -0.155719)
(-0.00063317 -0.000631654 0.0104548 -0.0328723 0.0798044 -0.15946)
(-0.0014819 0.00185126 0.00976743 -0.0249788 0.0825905 -0.150994)
(-0.00234239 0.000706335 0.00425023 -0.0214366 0.0855201 -0.151933)
(-0.000445156 -0.000259196 -0.002638 -0.0145961 0.0897663 -0.180098)
(0.000723571 0.00154057 -0.00287519 -0.0207297 0.100975 -0.18991)
(0.000891369 -0.00116831 0.000518683 -0.0174975 0.0883361 -0.182279)
(-4.01874e-05 -0.0016304 0.0035652 -0.025868 0.0947711 -0.187754)
(-0.00147171 0.00219469 0.00250986 -0.0211231 0.0881219 -0.161345)
(0.000762919 0.000686282 -0.00115726 -0.0108018 0.105511 -0.208275)
(0.000659726 -0.000505092 0.00129648 -0.0108397 0.10548 -0.208101)
(-0.00136508 -0.00100893 -0.000672141 -0.0198937 0.0887519 -0.163448)
(0.000123363 -0.000106007 -0.000814507 -0.011249 0.0815732 -0.208143)
(0.000477837 -6.75259e-06 -0.00235629 -0.0134797 0.0905566 -0.188347)
(0.000589866 0.0018384 -0.00280893 -0.0207619 0.101023 -0.189677)
(0.000264665 0.000704568 0.00231194 -0.0174919 0.0888597 -0.176281)
(-0.00148198 -0.00224912 0.00012897 -0.0226191 0.0885211 -0.152338)
(-0.00208778 -0.000726343 -0.00539392 -0.0233098 0.0834819 -0.148675)
(-0.00279823 -0.000444802 -0.0114142 -0.0221253 0.0826077 -0.149276)
(-0.00300106 -0.0010002 -0.020713 -0.0234964 0.0803214 -0.154759)
(-0.00204319 0.000916782 -0.0278579 -0.0214687 0.0920667 -0.191079)
(-0.00508872 -0.00124735 -0.0350144 -0.0146338 0.0852795 -0.203684)
(-0.0151154 -0.00291525 -0.0606693 -0.0304378 0.0704991 -0.157585)
(-0.0330025 0.000422531 -0.113565 -0.0268306 0.0666476 -0.121369)
(-0.127818 0.00523475 -0.0644007 -0.027418 0.0749474 -0.0706836)
(-0.126547 0.000139881 0.0577089 -0.0195102 0.0670037 -0.0797106)
(-0.0314555 0.000621041 0.11067 -0.0203165 0.0704686 -0.12648)
(-0.0151242 -0.00228977 0.0609274 -0.0206487 0.0652998 -0.157251)
(-0.00643934 0.00217966 0.0325231 -0.0181238 0.0784572 -0.187427)
(-0.00335097 0.00198181 0.0213137 -0.0169804 0.0700097 -0.182055)
(-0.00203128 -0.00381242 0.0121594 -0.0216796 0.0761796 -0.167938)
(-1.28444e-05 -0.000813178 0.010024 -0.0261554 0.077755 -0.188449)
(-0.00124148 0.00283173 0.0103264 -0.023413 0.0722531 -0.165008)
(-0.00263056 0.00193241 0.00329437 -0.0204189 0.0769115 -0.162327)
(-0.000553964 0.000184844 -0.000435251 -0.0144861 0.0725403 -0.184049)
(0.000622404 0.000518186 -0.00118566 -0.0135691 0.0935263 -0.208957)
(0.00068491 -0.00170836 -0.000228858 -0.0226511 0.0860888 -0.183)
(0.000460352 -0.00136874 0.00314946 -0.0170637 0.0880634 -0.216066)
(-0.00114982 0.00375185 0.00191413 -0.0194405 0.0797519 -0.173386)
(0.000270921 0.00201269 -0.00028195 -0.00882987 0.0810452 -0.21141)
(0.000370411 -0.00178825 0.000536895 -0.00887605 0.0809959 -0.211386)
(-0.00115407 -0.00183284 -0.00300236 -0.0193169 0.0808295 -0.173202)
(0.000164988 0.000719718 -0.00223919 -0.0138807 0.0831104 -0.214294)
(0.000502071 -0.000196314 0.00131904 -0.0135634 0.0738359 -0.19214)
(0.000751682 0.000646002 -0.000896596 -0.0135757 0.0935656 -0.208995)
(-3.976e-05 0.000149601 0.000311794 -0.0234091 0.0864752 -0.175173)
(-0.00161315 -0.00229358 -0.000578965 -0.0218402 0.0792305 -0.162017)
(-0.00191238 -0.000719059 -0.00566932 -0.0226988 0.0738193 -0.160457)
(-0.00284153 -0.000478432 -0.0115742 -0.0206983 0.0738837 -0.161145)
(-0.00282941 -0.000698305 -0.0187131 -0.0222871 0.0709939 -0.168913)
(-0.00206048 0.00123338 -0.0257405 -0.0151677 0.0839146 -0.211885)
(-0.00553161 -0.00238633 -0.0373801 -0.0186912 0.0761684 -0.208133)
(-0.014929 -0.00341224 -0.063392 -0.0240048 0.0695039 -0.185893)
(-0.0297618 0.00161945 -0.115728 -0.0191947 0.0635571 -0.150833)
(-0.120576 0.01338 -0.0671099 -0.0222762 0.0735162 -0.0944495)
(-0.124229 -0.00269299 0.0592192 -0.0186861 0.0598169 -0.0886534)
(-0.0313699 0.000174097 0.111224 -0.0206257 0.0609071 -0.128238)
(-0.0150426 -0.00125572 0.0621415 -0.0182617 0.0582548 -0.169784)
(-0.00606634 0.00220468 0.0329125 -0.00842053 0.0697575 -0.210526)
(-0.00396363 0.00121356 0.0196919 -0.0222642 0.0673043 -0.179382)
(-0.00227809 -0.00364096 0.0128051 -0.0201979 0.0655753 -0.17581)
(0.000727642 -0.00100675 0.00946332 -0.0144512 0.0678419 -0.220664)
(-0.000923982 0.00280007 0.00947519 -0.0218605 0.0608505 -0.176666)
(-0.00285212 0.00229113 0.00388087 -0.0202155 0.0666715 -0.168029)
(-0.000768247 0.00135302 4.67552e-05 -0.0205536 0.0707873 -0.18006)
(0.000341977 0.000152853 -0.000549085 -0.0125076 0.0644448 -0.210607)
(0.000574 -0.00183587 -0.000623352 -0.0231743 0.0756294 -0.183619)
(0.00106346 -0.000936024 0.00250503 -0.00834943 0.0703228 -0.2353)
(-0.000762993 0.00344871 0.00101285 -0.0191387 0.0698874 -0.179433)
(-0.000390998 0.00256087 -0.001172 -0.0178321 0.0697325 -0.196357)
(-0.00016505 -0.00240423 0.00156686 -0.0178924 0.0696274 -0.19647)
(-0.000809159 -0.00207736 -0.000123284 -0.0200625 0.0708802 -0.177241)
(0.000471094 0.000816696 -0.00232123 -0.0131841 0.0830812 -0.220488)
(0.00043437 0.000486025 -0.00025866 -0.0198192 0.0725554 -0.187762)
(0.00064303 3.46874e-05 -0.000184441 -0.0124981 0.0644636 -0.210866)
(-0.000261005 -0.00113033 -1.62587e-05 -0.0245981 0.0755262 -0.174381)
(-0.00160497 -0.00215609 -0.00171468 -0.021332 0.0681638 -0.167931)
(-0.00174815 -0.000632476 -0.00595388 -0.0224592 0.0624763 -0.169223)
(-0.00277795 -0.000402763 -0.0116808 -0.019663 0.0637337 -0.169016)
(-0.00260288 0.000214221 -0.0186419 -0.020269 0.0628164 -0.181342)
(-0.00236197 0.00142961 -0.0264356 -0.0141129 0.0538772 -0.217863)
(-0.00605085 -0.00319454 -0.0364251 -0.0208172 0.0586215 -0.20638)
(-0.0142685 -0.00297081 -0.0622618 -0.0126871 0.0606995 -0.217322)
(-0.0219476 0.000457266 -0.118694 -0.0109329 0.0483165 -0.17933)
(-0.109973 0.0125808 -0.0717394 -0.013338 0.0648041 -0.118215)
(-0.120708 -0.00806074 0.0612769 -0.0145478 0.0574039 -0.0980595)
(-0.0291728 0.000124156 0.112233 -0.0191905 0.0498071 -0.132992)
(-0.0149178 0.000330687 0.0620023 -0.0126402 0.0579196 -0.183037)
(-0.00602281 0.00160863 0.0331927 -0.00709358 0.0430766 -0.214795)
(-0.0044335 -0.000266368 0.0197089 -0.0241427 0.0566327 -0.177572)
(-0.00239753 -0.00200624 0.0118004 -0.0188228 0.0547389 -0.181055)
(0.00124293 -0.00114174 0.00885616 -0.00564438 0.050857 -0.242128)
(-0.000583524 0.00158536 0.00998539 -0.0187204 0.0523855 -0.188743)
(-0.00287253 0.00214337 0.00497023 -0.0195207 0.0557008 -0.172089)
(-0.000986903 0.00167328 -0.0013304 -0.0227127 0.0610738 -0.176641)
(-1.8345e-05 0.000168863 -0.000467028 -0.0224579 0.0506741 -0.1959)
(0.00050038 -0.000785528 0.000876776 -0.0225212 0.0626425 -0.183939)
(0.00148666 -0.000599218 0.00208991 -0.00741781 0.0590324 -0.239503)
(-0.000450761 0.00167142 0.00177838 -0.0195912 0.0592215 -0.181652)
(-0.000875525 0.00202778 -0.000478081 -0.0254359 0.0674989 -0.182175)
(-0.000543826 -0.00201748 0.000941072 -0.0255104 0.067367 -0.182436)
(-0.000503515 -0.000708485 -0.000259223 -0.0212583 0.059283 -0.178234)
(0.000663066 0.000681688 -0.00195999 -0.0139223 0.0551297 -0.215934)
(0.000347222 -0.000146635 -0.00237656 -0.0224745 0.0629311 -0.183238)
(0.000413302 -0.000207472 -0.000173461 -0.0224551 0.0507265 -0.1963)
(-0.000443329 -0.00152769 0.00145373 -0.0239446 0.061781 -0.174582)
(-0.00147336 -0.00198251 -0.00273729 -0.0202416 0.056606 -0.172483)
(-0.00157651 -0.000483656 -0.00618571 -0.020279 0.0534504 -0.179121)
(-0.00265058 -6.44386e-05 -0.0112566 -0.0181929 0.053379 -0.175)
(-0.0024347 0.000258312 -0.0205599 -0.0148694 0.0614611 -0.194786)
(-0.00271398 0.000900428 -0.0261404 -0.0214766 0.0432046 -0.212301)
(-0.00640055 -0.00204354 -0.0348723 -0.0207274 0.0625761 -0.209044)
(-0.0144027 -0.00154754 -0.0648924 -0.00468442 0.0448594 -0.237592)
(-0.019293 -0.000534768 -0.120977 -0.00667984 0.042425 -0.192623)
(-0.105266 0.00239254 -0.0744652 -0.00700103 0.0493867 -0.13243)
(-0.11547 0.000850321 0.0617516 -0.0106847 0.040617 -0.10475)
(-0.0245661 0.000636378 0.113422 -0.0176167 0.0403624 -0.137242)
(-0.0148813 0.00118192 0.0602966 -0.00850827 0.0406168 -0.191524)
(-0.00623587 0.000127143 0.031812 -0.0166717 0.0324687 -0.20135)
(-0.00462183 -0.000881779 0.0214372 -0.0242622 0.0431103 -0.178791)
(-0.00239476 7.31198e-05 0.0112185 -0.0177348 0.0441813 -0.184333)
(0.00141053 -0.000957868 0.0087765 -0.00459208 0.0416998 -0.248241)
(-0.000269041 9.9398e-05 0.0103627 -0.0125466 0.0517855 -0.201872)
(-0.00280682 0.00151462 0.00540336 -0.0182722 0.0448922 -0.175476)
(-0.00115834 0.000671204 -0.00126194 -0.0224296 0.0481732 -0.175859)
(-0.000123866 0.000271882 -0.000407816 -0.0308628 0.0460191 -0.184903)
(0.00043791 0.00121945 0.000964691 -0.0219392 0.0496894 -0.183846)
(0.00151143 -0.000384272 0.00185228 -0.0136311 0.0407698 -0.229071)
(-0.000244477 -9.44668e-05 0.00273412 -0.0204431 0.0476652 -0.181782)
(-0.00109453 0.00132394 0.000392599 -0.0260805 0.0552591 -0.175652)
(-0.000684604 -0.00152286 8.99404e-06 -0.0261134 0.0550655 -0.176129)
(-0.000275706 0.000178843 -0.00256214 -0.0224487 0.0465634 -0.178445)
(0.000549852 0.000562808 -0.00161415 -0.0227305 0.0407392 -0.199385)
(0.000265612 -0.00126504 -0.00109741 -0.023063 0.0498607 -0.18072)
(0.000386198 -0.000236289 -0.000295512 -0.0308683 0.0460718 -0.185359)
(-0.00059757 -0.000574109 0.00144203 -0.0226719 0.0482956 -0.175724)
(-0.001383 -0.00151303 -0.0030822 -0.0187262 0.0454833 -0.176198)
(-0.0013694 -0.000294574 -0.00633013 -0.0142594 0.0519366 -0.191662)
(-0.00262442 0.000675316 -0.00987231 -0.0166817 0.0433489 -0.179211)
(-0.00239395 -0.000611713 -0.0205147 -0.0100198 0.04314 -0.204859)
(-0.00276132 0.00016321 -0.0257876 -0.0223204 0.052094 -0.215546)
(-0.00655123 7.92998e-05 -0.0352651 -0.0168691 0.0432529 -0.215474)
(-0.0143375 -0.000456173 -0.0659965 -0.00497992 0.0358595 -0.242481)
(-0.01984 -0.00135936 -0.122258 -0.00720131 0.0376098 -0.194495)
(-0.105388 -0.00449832 -0.0777769 -0.00688483 0.0396265 -0.134749)
(-0.120985 0.00962099 0.063136 -0.0127728 0.0240653 -0.100382)
(-0.0296041 0.000978434 0.113644 -0.0155379 0.0320608 -0.137197)
(-0.0151909 0.000660649 0.0601302 -0.0119804 0.0232968 -0.184818)
(-0.00646642 -0.00137775 0.0330885 -0.0245497 0.0312328 -0.190407)
(-0.00439941 -0.000253336 0.0215978 -0.0220946 0.0324646 -0.185088)
(-0.00237935 0.00189316 0.0111508 -0.0169818 0.0340407 -0.186124)
(0.00122779 -5.03733e-05 0.0101826 -0.00971586 0.0280933 -0.240626)
(-9.1941e-05 -0.00103852 0.0105601 -0.00837546 0.0342657 -0.210071)
(-0.00274453 0.000187248 0.00410545 -0.0171162 0.034503 -0.17783)
(-0.00122898 -0.000840115 -0.00130169 -0.0208294 0.035431 -0.177554)
(0.000116671 0.000304677 -0.00028573 -0.0310395 0.0338723 -0.187296)
(0.000379404 0.00259365 -0.000252759 -0.0210614 0.037222 -0.184322)
(0.00119589 -0.000316806 0.00169157 -0.022399 0.0324765 -0.211838)
(-0.000113208 -0.000690951 0.0047162 -0.0213017 0.0354388 -0.181675)
(-0.00113998 0.000905885 0.000980558 -0.023896 0.0407314 -0.174679)
(-0.000761099 -0.00130679 -0.000761532 -0.0237912 0.0405403 -0.17544)
(-9.13051e-05 -0.000145157 -0.00312986 -0.0226311 0.0336738 -0.180695)
(0.00036307 0.000565558 -0.0013054 -0.0291494 0.036385 -0.188246)
(0.000195692 -0.00171992 -0.00126841 -0.0221275 0.0365827 -0.181033)
(0.000567983 -0.00013864 -0.000391584 -0.0310605 0.0339171 -0.187676)
(-0.000686711 0.000904728 0.00152487 -0.0208846 0.0356795 -0.17805)
(-0.00141429 -0.000343963 -0.00181247 -0.0174401 0.034904 -0.178618)
(-0.00113639 -0.000130771 -0.00641717 -0.00950499 0.0336459 -0.200877)
(-0.00271186 0.000722062 -0.0128478 -0.015937 0.0336993 -0.181015)
(-0.00252709 -0.000912573 -0.0186409 -0.0124546 0.0250099 -0.200267)
(-0.00253059 -0.000527987 -0.0257503 -0.0150762 0.0410563 -0.228489)
(-0.0065533 0.0011406 -0.037561 -0.0173193 0.024779 -0.214352)
(-0.0151482 0.000158691 -0.0659322 -0.011218 0.0220729 -0.235134)
(-0.0229054 -0.00223117 -0.122264 -0.0124309 0.024847 -0.181118)
(-0.108454 -0.0107158 -0.0762442 -0.0113008 0.0262217 -0.127481)
(-0.124222 0.00392558 0.0625361 -0.0165261 0.0220437 -0.093971)
(-0.0323674 0.000597015 0.113705 -0.0145965 0.0235588 -0.134969)
(-0.015539 -0.000572317 0.0600125 -0.0171367 0.0229024 -0.175922)
(-0.00645185 -0.0017544 0.0332407 -0.024136 0.0230692 -0.191788)
(-0.00394268 0.000758111 0.0216573 -0.0158639 0.0295724 -0.197185)
(-0.00233015 0.00252255 0.0100575 -0.0163962 0.0243881 -0.187038)
(0.000818115 0.000793675 0.00865983 -0.016101 0.0282604 -0.226015)
(-0.000230246 -0.00127805 0.0115918 -0.0125062 0.0166979 -0.202235)
(-0.0027609 -0.000935397 0.00554572 -0.0166076 0.0245272 -0.178624)
(-0.0011266 -0.00207143 -0.00151249 -0.0185415 0.0239548 -0.180978)
(0.000574431 0.000249347 -0.000134404 -0.0229004 0.0294852 -0.204579)
(0.000320235 0.0028809 0.00062397 -0.0193572 0.0256312 -0.18633)
(0.000850032 -0.000438416 0.00149309 -0.0235101 0.0383002 -0.205165)
(-1.02589e-06 -0.00030868 0.00441744 -0.0212952 0.0233251 -0.183663)
(-0.00121208 0.000841735 0.00141 -0.0214142 0.027436 -0.176)
(-0.000892203 -0.00128746 -0.00138886 -0.021074 0.0274492 -0.177077)
(9.68632e-05 -0.000936201 -0.00339883 -0.0200788 0.0240076 -0.187636)
(0.000234794 0.000668678 -0.00102968 -0.0274546 0.0259422 -0.190315)
(0.000130623 -0.00162133 -0.00155826 -0.0198252 0.0243393 -0.184158)
(0.000920451 -5.29904e-06 -0.000406939 -0.0229415 0.0295365 -0.204806)
(-0.000627104 0.00211137 0.00176182 -0.0186464 0.0242427 -0.181508)
(-0.00158893 0.000712481 -0.00336186 -0.0168767 0.0247939 -0.179317)
(-0.00116456 -4.04596e-05 -0.00643169 -0.0127708 0.0156038 -0.194849)
(-0.00277308 8.64897e-06 -0.0114642 -0.0160695 0.0243488 -0.180782)
(-0.00262743 -0.000458047 -0.0188925 -0.0172994 0.0242279 -0.192411)
(-0.00233782 -0.000883505 -0.0255445 -0.0128709 0.0133098 -0.234254)
(-0.00645843 0.000629917 -0.0387168 -0.0165684 0.0311391 -0.215946)
(-0.0155888 0.000544996 -0.0660498 -0.0161525 0.0248342 -0.225799)
(-0.02854 -0.000278111 -0.121346 -0.0185846 0.0242382 -0.167565)
(-0.115275 -0.00439359 -0.0752465 -0.0158448 0.024557 -0.116479)
(-0.125427 0.000517497 0.0615376 -0.0173384 0.014517 -0.0902608)
(-0.0330576 0.000169554 0.113629 -0.0151492 0.0143094 -0.132773)
(-0.0157645 -0.00127855 0.0600223 -0.0181162 0.0154456 -0.171554)
(-0.00621556 -0.00103586 0.0341757 -0.0157398 0.022558 -0.205648)
(-0.00353264 0.00138578 0.0216233 -0.0104963 0.0106647 -0.209162)
(-0.00235806 0.00185436 0.0106875 -0.0160621 0.0146729 -0.187353)
(0.000473061 0.00073302 0.00852553 -0.0200439 0.0176962 -0.216376)
(-0.000438573 -0.00107772 0.00977128 -0.0189034 0.0156324 -0.191485)
(-0.00290168 -0.000961523 0.00550027 -0.0165892 0.0148572 -0.178409)
(-0.000988937 -0.00205234 -0.000386573 -0.0162609 0.0137719 -0.184756)
(0.00111076 0.000161717 -5.8542e-06 -0.0100862 0.0196362 -0.230506)
(0.000246116 0.00245743 0.00146993 -0.0173173 0.0147987 -0.189152)
(0.000560361 -0.00070545 0.00122622 -0.0198081 0.017454 -0.207205)
(0.000143085 -0.000257743 0.00256429 -0.0191169 0.0142085 -0.189674)
(-0.00133506 0.000956989 0.00180799 -0.019449 0.0156934 -0.177819)
(-0.00111676 -0.00104731 -0.00144297 -0.0189549 0.0159844 -0.178919)
(0.000299545 -0.00142866 -0.00343422 -0.0132467 0.0226057 -0.199378)
(0.00022869 0.000616871 -0.00123446 -0.0181177 0.0241008 -0.204924)
(6.464e-05 -0.000808833 -0.000528243 -0.0168916 0.0136838 -0.188728)
(0.00131811 7.93906e-05 -0.000364893 -0.0101639 0.0196166 -0.230525)
(-0.000537756 0.0020723 0.000653032 -0.0164423 0.0139666 -0.18515)
(-0.00184308 0.000766035 -0.00346019 -0.0168351 0.014978 -0.178987)
(-0.00127998 -6.22626e-06 -0.00641214 -0.0184333 0.0146417 -0.185739)
(-0.00278763 -0.000206354 -0.0110232 -0.0164853 0.0148516 -0.179824)
(-0.00269489 -0.000329846 -0.020733 -0.0187483 0.0165212 -0.187656)
(-0.00230833 -0.000449691 -0.024163 -0.0148081 0.0128179 -0.233076)
(-0.00627701 0.000367905 -0.0350655 -0.0137499 0.0140067 -0.220463)
(-0.0155239 1.51408e-05 -0.0674777 -0.0142245 0.0239483 -0.226775)
(-0.0267294 0.00102167 -0.121294 -0.0196198 0.0178795 -0.163619)
(-0.114451 -0.00302231 -0.0721854 -0.0177331 0.0148256 -0.110338)
(-0.125719 -0.000119906 0.0609512 -0.0171144 0.00472349 -0.0889439)
(-0.0331256 2.19898e-05 0.113554 -0.015726 0.00463693 -0.131546)
(-0.0158117 -0.000663973 0.061686 -0.0174814 0.00521578 -0.170682)
(-0.00592768 -0.000154889 0.0321575 -0.00537357 0.0131002 -0.222514)
(-0.0033554 0.000780949 0.0199394 -0.0113533 -0.00444383 -0.209661)
(-0.00245384 0.000661665 0.0113459 -0.0160948 0.00505523 -0.18704)
(0.000236318 0.000251743 0.00878001 -0.0242026 -0.000946149 -0.206221)
(-0.000567301 -0.000555669 0.0109969 -0.021535 0.00635083 -0.18538)
(-0.00295275 -0.00037276 0.00514207 -0.0166509 0.00509822 -0.178095)
(-0.000901313 -0.000741641 -0.000599082 -0.0148348 0.00463219 -0.187171)
(0.00147581 5.7e-05 3.98449e-05 -0.00158019 0.00435462 -0.247006)