/*--------------------------------*- C++ -*----------------------------------*\
| =========                 |                                                 |
| \\      /  F ield         | OpenFOAM: The Open Source CFD Toolbox           |
|  \\    /   O peration     | Version:  2106                                  |
|   \\  /    A nd           | Website:  www.openfoam.com                      |
|    \\/     M anipulation  |                                                 |
\*---------------------------------------------------------------------------*/
FoamFile
{
    version     2.0;
    format      ascii;
    arch        "LSB;label=32;scalar=64";
    class       volSymmTensorField;
    location    "155";
    object      sigma;
}
// * * * * * * * * * * * * * * * * * * * * * * * * * * * * * * * * * * * * * //

dimensions      [1 -1 -2 0 0 0 0];

internalField   nonuniform List<symmTensor> 
9000
(
(7.37071e+07 2.60485e+06 4.24142e+07 3.93118e+07 2.14831e+07 6.00273e+07)
(1.13899e+08 198116 7.69914e+07 3.64635e+07 1.97676e+07 2.33226e+07)
(1.14553e+08 119253 4.68684e+07 3.36052e+07 1.95373e+07 -9.48821e+06)
(1.23212e+08 -2.58237e+06 2.75682e+07 3.59821e+07 2.19328e+07 -4.20425e+06)
(1.62293e+08 -23254.2 1.65581e+07 1.02331e+08 2.13385e+07 3.9479e+07)
(1.35726e+08 367099 1.11826e+07 3.99181e+07 2.56861e+07 1.58151e+07)
(1.70171e+08 102805 7.11882e+06 1.07657e+08 2.19469e+07 5.39431e+07)
(1.36397e+08 2.2543e+06 3.30741e+06 3.87061e+07 2.53378e+07 1.69536e+07)
(1.34349e+08 -350325 2.04181e+06 3.66241e+07 2.4503e+07 1.25121e+07)
(1.32773e+08 -734909 1.53077e+06 3.23895e+07 2.54141e+07 8.55362e+06)
(1.29457e+08 -2.2468e+06 2.63438e+06 2.05742e+07 2.85367e+07 8.51366e+06)
(1.72689e+08 29932.5 1.02173e+06 1.0644e+08 2.18374e+07 5.80266e+07)
(1.29253e+08 2.53592e+06 -441663 2.05946e+07 2.86504e+07 1.04157e+07)
(1.35522e+08 -337930 -775849 3.68972e+07 2.51118e+07 1.52649e+07)
(1.25003e+08 -932085 -929943 1.4539e+07 2.85965e+07 -1.01237e+06)
(1.24951e+08 895056 513569 1.45558e+07 2.85896e+07 -1.18739e+06)
(1.34763e+08 332991 -695360 3.68319e+07 2.44112e+07 1.2594e+07)
(1.3073e+08 -345437 -1.13756e+06 2.98339e+07 2.3692e+07 5.25849e+06)
(1.32605e+08 -22926.3 464702 3.21061e+07 2.49969e+07 7.12493e+06)
(1.29429e+08 -2.08161e+06 1.01005e+06 2.05961e+07 2.85571e+07 8.46243e+06)
(1.7224e+08 664791 -1.07242e+06 1.06465e+08 2.18239e+07 5.77706e+07)
(1.37253e+08 2.6169e+06 -3.77305e+06 3.89613e+07 2.56718e+07 1.92184e+07)
(1.34033e+08 95596.6 -5.171e+06 3.66148e+07 2.45249e+07 1.23058e+07)
(1.32371e+08 -86266 -7.98954e+06 3.64693e+07 2.39573e+07 8.83364e+06)
(1.30069e+08 -741884 -1.22187e+07 3.58409e+07 2.33325e+07 3.9713e+06)
(1.18194e+08 -1.01785e+06 -1.77436e+07 1.62616e+07 2.50191e+07 -1.36313e+07)
(1.13373e+08 -1.66314e+06 -2.49606e+07 1.50416e+07 2.3378e+07 -1.88212e+07)
(1.49612e+08 829746 -4.53355e+07 1.03488e+08 1.69036e+07 2.98883e+07)
(1.22703e+08 -121015 -7.86066e+07 4.2097e+07 2.28733e+07 2.84883e+07)
(1.04398e+08 -1.26036e+07 -4.80036e+07 1.05017e+08 2.07778e+07 1.18937e+08)
(1.24997e+08 3.11647e+06 4.69425e+07 1.42927e+08 6.72734e+07 2.41455e+08)
(2.12324e+08 146616 7.71496e+07 1.55656e+08 6.54535e+07 2.18387e+08)
(2.23637e+08 473734 4.57461e+07 1.5902e+08 6.72153e+07 2.0582e+08)
(2.28727e+08 -2.60573e+06 2.33542e+07 1.59295e+08 7.25935e+07 2.02268e+08)
(2.51141e+08 -89636.8 1.4974e+07 2.20958e+08 8.01169e+07 1.98474e+08)
(2.35799e+08 818398 1.04752e+07 1.60832e+08 7.98445e+07 2.06853e+08)
(2.66559e+08 118296 7.42662e+06 2.39787e+08 7.74877e+07 2.2355e+08)
(2.3831e+08 1.68524e+06 6.24501e+06 1.611e+08 7.85843e+07 2.13166e+08)
(2.38239e+08 -960951 2.44011e+06 1.59796e+08 7.68268e+07 2.13313e+08)
(2.2653e+08 -2.56005e+06 905466 1.40965e+08 8.18873e+07 1.92395e+08)
(2.31646e+08 -1.78275e+06 -971557 1.58341e+08 7.79352e+07 1.90088e+08)
(2.61539e+08 41901.8 1.00084e+06 2.31005e+08 7.79754e+07 2.12143e+08)
(2.31942e+08 2.5103e+06 2.69393e+06 1.58663e+08 7.79809e+07 1.93181e+08)
(2.36975e+08 -856025 -218139 1.58653e+08 7.80267e+07 2.09822e+08)
(2.19479e+08 -3.09373e+06 -513054 1.39116e+08 8.13324e+07 1.69794e+08)
(2.19335e+08 3.02892e+06 335941 1.39174e+08 8.1308e+07 1.69617e+08)
(2.36275e+08 1.45598e+06 -510255 1.5843e+08 7.66208e+07 2.08229e+08)
(2.20813e+08 -891756 -928119 1.32019e+08 7.90258e+07 1.84085e+08)
(2.25564e+08 -637891 -264126 1.39806e+08 8.10118e+07 1.89227e+08)
(2.315e+08 -1.36651e+06 -2.3927e+06 1.58415e+08 7.79754e+07 1.90049e+08)
(2.62082e+08 2.45942e+06 -1.06415e+06 2.31651e+08 7.80195e+07 2.14266e+08)
(2.38384e+08 2.70593e+06 -227249 1.60771e+08 7.92927e+07 2.1286e+08)
(2.38492e+08 198674 -4.24949e+06 1.60283e+08 7.68442e+07 2.14519e+08)
(2.37306e+08 -140874 -7.65715e+06 1.60341e+08 7.57914e+07 2.12776e+08)
(2.34906e+08 -2.59682e+06 -1.16828e+07 1.5934e+08 7.46709e+07 2.07858e+08)
(2.25891e+08 -3.29638e+06 -1.72678e+07 1.56358e+08 7.1133e+07 1.82282e+08)
(2.16449e+08 650727 -2.69594e+07 1.48823e+08 6.91356e+07 1.69798e+08)
(2.4976e+08 3.16792e+06 -4.51233e+07 2.3648e+08 6.7866e+07 2.11206e+08)
(2.15428e+08 -400105 -7.84564e+07 1.63196e+08 7.18488e+07 2.19979e+08)
(1.42827e+08 -1.20766e+07 -5.24936e+07 2.13128e+08 6.99045e+07 2.59552e+08)
(1.39604e+08 936477 4.91893e+07 1.8524e+08 6.60904e+07 2.86455e+08)
(2.36464e+08 -821222 7.64945e+07 1.97518e+08 6.81537e+07 2.56688e+08)
(2.55749e+08 617306 4.429e+07 2.06664e+08 6.46317e+07 2.59121e+08)
(2.59567e+08 -1.98302e+06 2.23516e+07 2.05202e+08 7.06349e+07 2.52699e+08)
(2.6031e+08 126560 1.41121e+07 2.2561e+08 8.12306e+07 2.21287e+08)
(2.64657e+08 1.08765e+06 9.47762e+06 2.05964e+08 7.89546e+07 2.51265e+08)
(2.71003e+08 -5736.07 7.54591e+06 2.2933e+08 8.38956e+07 2.47103e+08)
(2.67991e+08 901723 6.8916e+06 2.07547e+08 7.69897e+07 2.59621e+08)
(2.68469e+08 -1.33857e+06 3.06495e+06 2.07852e+08 7.48867e+07 2.6065e+08)
(2.60274e+08 -1.37275e+06 -969448 2.03405e+08 7.45813e+07 2.3643e+08)
(2.69166e+08 -888467 -2.62922e+06 2.27304e+08 7.47644e+07 2.38103e+08)
(2.57987e+08 -9943.66 981600 2.1248e+08 8.98375e+07 2.1743e+08)
(2.69587e+08 1.96143e+06 3.46631e+06 2.2731e+08 7.46009e+07 2.42072e+08)
(2.66032e+08 -1.13496e+06 600073 2.06265e+08 7.65303e+07 2.54039e+08)
(2.62023e+08 -2.27111e+06 -1.15493e+06 2.24499e+08 7.2463e+07 2.17396e+08)
(2.61801e+08 2.17295e+06 1.10389e+06 2.24541e+08 7.24305e+07 2.1731e+08)
(2.6537e+08 -138260 992865 2.05817e+08 7.49978e+07 2.51898e+08)
(2.47937e+08 -1.24326e+06 -294470 1.85616e+08 7.59512e+07 2.14629e+08)
(2.58559e+08 1.28823e+06 -2.57019e+06 2.01851e+08 7.37216e+07 2.31085e+08)
(2.68914e+08 -410326 -3.7168e+06 2.27377e+08 7.4811e+07 2.38192e+08)
(2.59053e+08 1.37651e+06 517004 2.13413e+08 8.98027e+07 2.20919e+08)
(2.67508e+08 2.10483e+06 877046 2.07169e+08 7.80181e+07 2.57208e+08)
(2.69008e+08 74147.9 -3.71361e+06 2.08323e+08 7.48069e+07 2.62973e+08)
(2.68336e+08 -177595 -7.52131e+06 2.08268e+08 7.36658e+07 2.62108e+08)
(2.65709e+08 -1.58166e+06 -1.30327e+07 2.069e+08 7.2584e+07 2.56876e+08)
(2.65325e+08 -2.49665e+06 -1.8526e+07 2.26316e+08 6.70689e+07 2.35793e+08)
(2.49222e+08 295485 -2.54405e+07 2.09417e+08 7.01281e+07 2.105e+08)
(2.55454e+08 2.68477e+06 -4.25129e+07 2.26094e+08 7.38229e+07 2.3907e+08)
(2.42514e+08 157175 -7.72656e+07 2.09222e+08 7.06066e+07 2.70104e+08)
(1.41081e+08 -3.98348e+06 -5.29366e+07 2.05402e+08 7.5825e+07 2.79497e+08)
(1.36696e+08 -1.42317e+06 4.85137e+07 2.00981e+08 5.83282e+07 2.58334e+08)
(2.34167e+08 -567428 7.56226e+07 2.23576e+08 5.81017e+07 2.24053e+08)
(2.53099e+08 643310 4.2333e+07 2.247e+08 5.72419e+07 2.32066e+08)
(2.5593e+08 -135819 2.07903e+07 2.20979e+08 6.24002e+07 2.25314e+08)
(2.57442e+08 392721 1.37024e+07 2.35946e+08 6.88467e+07 2.01586e+08)
(2.60572e+08 89998.2 1.03778e+07 2.21629e+08 7.06413e+07 2.22503e+08)
(2.6085e+08 -161157 7.51737e+06 2.24944e+08 7.5323e+07 2.18946e+08)
(2.64019e+08 216064 6.56578e+06 2.2407e+08 6.84415e+07 2.30604e+08)
(2.6433e+08 -450049 1.75341e+06 2.25638e+08 6.67658e+07 2.3099e+08)
(2.62442e+08 -988759 -1.39004e+06 2.34005e+08 6.19436e+07 2.13705e+08)
(2.50969e+08 -923748 -703760 2.15627e+08 7.7101e+07 1.92358e+08)
(2.46689e+08 -110664 954415 2.15542e+08 7.8675e+07 1.77291e+08)
(2.51278e+08 1.16857e+06 2.55062e+06 2.15215e+08 7.65281e+07 1.96639e+08)
(2.60866e+08 -148857 -502173 2.22589e+08 6.88158e+07 2.22472e+08)
(2.50916e+08 -1.08137e+06 -2.40083e+06 2.27418e+08 7.07189e+07 1.79851e+08)
(2.50785e+08 1.00057e+06 2.38642e+06 2.274e+08 7.07083e+07 1.79867e+08)
(2.60458e+08 -667160 1.70855e+06 2.22734e+08 6.74321e+07 2.19711e+08)
(2.49753e+08 -396210 -1.50585e+06 2.23598e+08 5.91489e+07 1.82576e+08)
(2.60194e+08 932456 -2.15872e+06 2.32244e+08 6.13395e+07 2.06666e+08)
(2.50796e+08 -487045 -1.44147e+06 2.15645e+08 7.71697e+07 1.92578e+08)
(2.48306e+08 1.12171e+06 874896 2.17302e+08 7.85256e+07 1.81767e+08)
(2.63041e+08 1.19772e+06 196295 2.24025e+08 6.9895e+07 2.26653e+08)
(2.65075e+08 -117548 -3.45758e+06 2.2603e+08 6.65229e+07 2.33864e+08)
(2.64624e+08 -207196 -7.46244e+06 2.26029e+08 6.5403e+07 2.33402e+08)
(2.61569e+08 -1.34819e+06 -1.32642e+07 2.23757e+08 6.45607e+07 2.27708e+08)
(2.47517e+08 -2.24143e+06 -1.79353e+07 2.14838e+08 6.98467e+07 1.90888e+08)
(2.31714e+08 709999 -2.44037e+07 2.05068e+08 6.94049e+07 1.58271e+08)
(2.45452e+08 2.42917e+06 -4.17252e+07 2.21477e+08 6.62641e+07 2.12269e+08)
(2.39904e+08 460591 -7.59237e+07 2.24713e+08 6.23612e+07 2.48343e+08)
(1.3455e+08 629120 -4.99971e+07 2.01601e+08 6.79529e+07 2.50807e+08)
(1.29968e+08 -1.83412e+06 4.42851e+07 2.02866e+08 5.47284e+07 2.15473e+08)
(2.25168e+08 -395396 7.46982e+07 2.32923e+08 5.67249e+07 1.84631e+08)
(2.39427e+08 -156288 4.22141e+07 2.2599e+08 5.43777e+07 1.8854e+08)
(2.41692e+08 377749 2.05092e+07 2.20028e+08 5.77388e+07 1.81264e+08)
(2.37813e+08 645046 1.35866e+07 2.16968e+08 6.92597e+07 1.58994e+08)
(2.47002e+08 -176261 1.0357e+07 2.21997e+08 6.58342e+07 1.79683e+08)
(2.46034e+08 -260296 7.37763e+06 2.18199e+08 6.7122e+07 1.79032e+08)
(2.50271e+08 99435.4 6.19386e+06 2.24883e+08 6.36524e+07 1.86871e+08)
(2.50226e+08 -315238 1.34078e+06 2.26865e+08 6.30511e+07 1.86283e+08)
(2.42571e+08 -641895 -605382 2.20749e+08 6.509e+07 1.64909e+08)
(2.34503e+08 316514 -997433 2.13055e+08 6.74492e+07 1.4312e+08)
(2.34274e+08 -240325 869419 2.17652e+08 7.30897e+07 1.36121e+08)
(2.34549e+08 -65194.2 3.03395e+06 2.12032e+08 6.61207e+07 1.47379e+08)
(2.46262e+08 101986 -647793 2.22978e+08 6.49583e+07 1.76794e+08)
(2.29123e+08 -705380 -1.65258e+06 2.11732e+08 6.90716e+07 1.27256e+08)
(2.29068e+08 671435 1.63792e+06 2.1174e+08 6.90366e+07 1.27343e+08)
(2.45763e+08 -386409 -416909 2.23251e+08 6.42536e+07 1.73628e+08)
(2.31061e+08 -384200 -1.84661e+06 2.1603e+08 6.30822e+07 1.31909e+08)
(2.39876e+08 530831 196187 2.18485e+08 6.49619e+07 1.56756e+08)
(2.34412e+08 675246 -1.42489e+06 2.13094e+08 6.74841e+07 1.43407e+08)
(2.36257e+08 895152 133943 2.20009e+08 7.31047e+07 1.41281e+08)
(2.49234e+08 -162816 801527 2.25346e+08 6.58696e+07 1.82527e+08)
(2.51261e+08 -295316 -3.3784e+06 2.27433e+08 6.24879e+07 1.89519e+08)
(2.50801e+08 -226657 -7.44685e+06 2.2753e+08 6.14703e+07 1.89171e+08)
(2.4746e+08 -1.06925e+06 -1.24455e+07 2.24507e+08 6.05847e+07 1.83111e+08)
(2.31003e+08 -1.09095e+06 -1.78135e+07 2.12224e+08 6.07844e+07 1.4109e+08)
(2.18151e+08 557898 -2.4552e+07 2.10237e+08 6.16038e+07 1.09744e+08)
(2.30651e+08 891671 -4.09067e+07 2.14491e+08 5.92052e+07 1.73009e+08)
(2.28271e+08 338007 -7.49314e+07 2.24166e+08 5.63385e+07 2.10394e+08)
(1.2719e+08 1.78257e+06 -4.60672e+07 1.96556e+08 6.08174e+07 2.11885e+08)
(1.23435e+08 -1.30013e+06 4.17405e+07 1.98191e+08 5.26897e+07 1.81412e+08)
(2.13714e+08 98627.5 7.39204e+07 2.25336e+08 5.54002e+07 1.54007e+08)
(2.2677e+08 -762539 4.06176e+07 2.20057e+08 5.24845e+07 1.54186e+08)
(2.27066e+08 504419 2.09086e+07 2.11707e+08 5.38275e+07 1.43232e+08)
(2.22965e+08 915543 1.37144e+07 2.07012e+08 7.08262e+07 1.22515e+08)
(2.34266e+08 -574229 9.58934e+06 2.16491e+08 6.20007e+07 1.45581e+08)
(2.31818e+08 -329404 7.17515e+06 2.08304e+08 5.95883e+07 1.44169e+08)
(2.37209e+08 506946 6.13541e+06 2.19003e+08 5.98912e+07 1.51983e+08)
(2.37168e+08 -132191 1.59021e+06 2.21507e+08 6.06001e+07 1.51062e+08)
(2.26843e+08 -116996 -1.74067e+06 2.11534e+08 6.93352e+07 1.24557e+08)
(2.22793e+08 899631 -181651 2.08347e+08 5.91786e+07 1.11283e+08)
(2.20774e+08 -449849 689912 2.08007e+08 6.82153e+07 1.03998e+08)
(2.22073e+08 -618778 1.83221e+06 2.0564e+08 5.65894e+07 1.1456e+08)
(2.33009e+08 511443 -46696.3 2.17149e+08 6.22285e+07 1.41065e+08)
(2.15835e+08 -56671.4 -2.21113e+06 2.05128e+08 6.87897e+07 9.23777e+07)
(2.15727e+08 92835.1 2.24122e+06 2.05133e+08 6.87369e+07 9.25135e+07)
(2.32402e+08 -800488 1.03141e+06 2.17422e+08 6.22698e+07 1.37952e+08)
(2.12167e+08 -408179 -1.60736e+06 2.00792e+08 6.72407e+07 8.75065e+07)
(2.23843e+08 745186 -1.67446e+06 2.08816e+08 6.96264e+07 1.15668e+08)
(2.22663e+08 1.17878e+06 -349233 2.08377e+08 5.91838e+07 1.11568e+08)
(2.23064e+08 428456 1.39421e+06 2.10817e+08 6.84933e+07 1.09836e+08)
(2.36681e+08 -859324 -366482 2.20133e+08 6.30215e+07 1.48699e+08)
(2.38313e+08 -418424 -3.43984e+06 2.21869e+08 5.96606e+07 1.54521e+08)
(2.37844e+08 -252419 -7.48601e+06 2.22173e+08 5.88041e+07 1.54126e+08)
(2.34175e+08 -565386 -1.36342e+07 2.18303e+08 5.76527e+07 1.47634e+08)
(2.18946e+08 -7779.43 -1.78804e+07 2.06687e+08 5.29974e+07 1.08742e+08)
(2.05986e+08 -303929 -2.31035e+07 2.02786e+08 5.43395e+07 7.93317e+07)
(2.16418e+08 -789352 -4.05111e+07 2.04238e+08 5.26262e+07 1.38791e+08)
(2.15779e+08 100181 -7.46478e+07 2.1678e+08 5.02296e+07 1.76231e+08)
(1.20509e+08 1.75407e+06 -4.32411e+07 1.89157e+08 5.47991e+07 1.79019e+08)
(1.19274e+08 -106453 3.87818e+07 1.92289e+08 4.93655e+07 1.60146e+08)
(2.10359e+08 948451 7.3404e+07 2.21462e+08 4.76295e+07 1.46692e+08)
(2.16572e+08 -1.4929e+06 4.07048e+07 2.12217e+08 4.87331e+07 1.31214e+08)
(2.14375e+08 880616 2.22037e+07 2.0215e+08 5.03576e+07 1.12082e+08)
(2.14159e+08 1.20637e+06 1.40247e+07 2.04307e+08 5.89523e+07 9.81592e+07)
(2.24925e+08 -1.495e+06 7.77107e+06 2.10355e+08 5.68832e+07 1.22945e+08)
(2.18831e+08 -418503 6.92686e+06 1.97471e+08 5.28745e+07 1.136e+08)
(2.27404e+08 1.22655e+06 6.47143e+06 2.11836e+08 5.47205e+07 1.28345e+08)
(2.2786e+08 467983 2.816e+06 2.15209e+08 5.66614e+07 1.28748e+08)
(2.17675e+08 -171731 -1.74781e+06 2.083e+08 5.94748e+07 9.86461e+07)
(2.09747e+08 1.0207e+06 -1.90496e+06 1.95533e+08 6.6901e+07 8.34426e+07)
(2.16355e+08 -774066 343654 2.04171e+08 5.85272e+07 9.4995e+07)
(2.07035e+08 -1.08022e+06 2.36213e+06 1.89922e+08 6.27907e+07 8.26642e+07)
(2.23591e+08 1.4541e+06 1.66291e+06 2.10571e+08 5.83853e+07 1.17667e+08)
(2.04827e+08 454697 -766743 1.97165e+08 6.99063e+07 6.63285e+07)
(2.04778e+08 -334650 858987 1.97159e+08 6.98861e+07 6.64631e+07)
(2.2321e+08 -668466 -445328 2.10933e+08 5.88027e+07 1.15821e+08)
(2.03841e+08 -70234.9 -539653 1.96306e+08 5.40464e+07 6.58539e+07)
(2.1463e+08 -4473.94 -1.56116e+06 2.05382e+08 5.99984e+07 8.95235e+07)
(2.09698e+08 1.21803e+06 -1.86106e+06 1.95552e+08 6.6933e+07 8.36369e+07)
(2.19106e+08 466813 1.53178e+06 2.07342e+08 5.88742e+07 1.02136e+08)
(2.28001e+08 -1.49016e+06 85449.2 2.13997e+08 5.86498e+07 1.28052e+08)
(2.28994e+08 -481240 -3.57375e+06 2.14933e+08 5.5311e+07 1.31873e+08)
(2.28448e+08 -294704 -7.5625e+06 2.15643e+08 5.47318e+07 1.31399e+08)
(2.24158e+08 -662682 -1.37234e+07 2.10579e+08 5.3217e+07 1.23611e+08)
(2.05161e+08 607415 -1.84573e+07 1.9229e+08 6.09989e+07 7.99148e+07)
(1.97951e+08 -826434 -2.31988e+07 1.91627e+08 5.65021e+07 6.63717e+07)
(2.03245e+08 -1.9315e+06 -4.01965e+07 1.93093e+08 4.67093e+07 1.08851e+08)
(2.04312e+08 279949 -7.52426e+07 2.08401e+08 4.41574e+07 1.45765e+08)
(1.15157e+08 3.46829e+06 -4.26688e+07 1.81677e+08 4.96565e+07 1.53011e+08)
(1.16088e+08 92678.2 3.82351e+07 1.87005e+08 4.43934e+07 1.4712e+08)
(2.07075e+08 411472 7.33248e+07 2.14455e+08 4.66891e+07 1.44116e+08)
(2.09195e+08 -1.51709e+06 4.03675e+07 2.05535e+08 4.32645e+07 1.15029e+08)
(2.0378e+08 1.44414e+06 2.15482e+07 1.96038e+08 5.1982e+07 8.38657e+07)
(2.11482e+08 1.31305e+06 1.41214e+07 2.02452e+08 4.63851e+07 9.30813e+07)
(2.1868e+08 -2.52592e+06 8.05624e+06 2.05662e+08 5.04729e+07 1.08758e+08)
(2.0649e+08 -538772 6.6414e+06 1.8917e+08 5.15167e+07 8.16415e+07)
(2.20373e+08 1.87617e+06 6.84178e+06 2.05683e+08 4.78714e+07 1.11869e+08)
(2.21977e+08 1.28032e+06 2.18269e+06 2.10191e+08 5.09578e+07 1.1617e+08)
(2.15277e+08 122469 -288376 2.06046e+08 4.80617e+07 9.37025e+07)
(2.0262e+08 343325 -785559 1.93218e+08 6.1966e+07 6.37629e+07)
(2.12637e+08 -1.13188e+06 -151630 1.97175e+08 5.70383e+07 9.09361e+07)
(1.96173e+08 -906858 2.08668e+06 1.84562e+08 5.83465e+07 5.27128e+07)
(2.17893e+08 2.48579e+06 1.26821e+06 2.05775e+08 5.28398e+07 1.03778e+08)
(2.03526e+08 1.33351e+06 -186807 1.97497e+08 5.36966e+07 6.32767e+07)
(2.03638e+08 -1.18481e+06 355721 1.97512e+08 5.3664e+07 6.33391e+07)
(2.18069e+08 -1.21435e+06 -1.98922e+06 2.06035e+08 5.35537e+07 1.04079e+08)
(1.98721e+08 476851 -1.48358e+06 1.89415e+08 5.50649e+07 5.66309e+07)
(2.12377e+08 -130068 873931 2.03058e+08 4.89201e+07 8.47416e+07)
(2.02756e+08 428009 -594041 1.93263e+08 6.1992e+07 6.37875e+07)
(2.15893e+08 99118.6 206579 2.0041e+08 5.72943e+07 9.98586e+07)
(2.22596e+08 -1.51962e+06 -383594 2.09194e+08 5.24943e+07 1.1632e+08)
(2.22635e+08 -476414 -3.75622e+06 2.08863e+08 4.89091e+07 1.17591e+08)
(2.22245e+08 -316986 -7.66851e+06 2.10414e+08 4.89518e+07 1.17361e+08)
(2.16749e+08 -462663 -1.23984e+07 2.03858e+08 4.70371e+07 1.06711e+08)
(1.96597e+08 817175 -1.70544e+07 1.87913e+08 5.55977e+07 5.75775e+07)
(1.92387e+08 -1.58107e+06 -2.47663e+07 1.83669e+08 5.04655e+07 5.81539e+07)
(1.90595e+08 -2.26078e+06 -4.20005e+07 1.84582e+08 4.60499e+07 7.73231e+07)
(1.95513e+08 1.07297e+06 -7.66755e+07 2.02514e+08 4.21099e+07 1.15297e+08)
(1.13251e+08 8.86497e+06 -4.44638e+07 1.7838e+08 4.87083e+07 1.30562e+08)
(1.14207e+08 -1.78424e+06 3.92358e+07 1.84135e+08 3.96318e+07 1.37778e+08)
(2.05964e+08 115348 7.36917e+07 2.13083e+08 4.03541e+07 1.41784e+08)
(2.03322e+08 -831981 4.1172e+07 2.01189e+08 3.85968e+07 1.00798e+08)
(1.96357e+08 1.46072e+06 2.18062e+07 1.94797e+08 4.62179e+07 6.08917e+07)
(2.09178e+08 804044 1.30469e+07 1.97053e+08 4.45926e+07 9.29539e+07)
(2.14608e+08 -2.41232e+06 8.48404e+06 2.02735e+08 4.3447e+07 9.96336e+07)
(1.95337e+08 -667026 6.26994e+06 1.85281e+08 4.49488e+07 4.86538e+07)
(2.14819e+08 1.85519e+06 6.2778e+06 2.00948e+08 4.03166e+07 9.83812e+07)
(2.18461e+08 1.51799e+06 2.57128e+06 2.06957e+08 4.41733e+07 1.09023e+08)
(2.13785e+08 896444 30977.7 2.00676e+08 4.69002e+07 9.49946e+07)
(2.01922e+08 101273 -363797 1.93409e+08 4.2698e+07 6.21577e+07)
(2.11825e+08 -1.21636e+06 -413003 1.96091e+08 5.01084e+07 8.97881e+07)
(1.90732e+08 -620164 1.65971e+06 1.84495e+08 4.65925e+07 3.41293e+07)
(2.14994e+08 2.28495e+06 671068 2.02819e+08 4.6304e+07 9.66157e+07)
(2.06262e+08 1.69671e+06 -776512 1.94706e+08 4.62014e+07 7.64244e+07)
(2.06443e+08 -1.59293e+06 1.03812e+06 1.94697e+08 4.61317e+07 7.63809e+07)
(2.15683e+08 -1.37636e+06 -81681.9 2.02927e+08 4.69618e+07 9.87884e+07)
(1.95867e+08 541103 -1.53794e+06 1.86819e+08 5.50456e+07 4.947e+07)
(2.11186e+08 322017 -171375 1.97767e+08 4.80717e+07 8.64969e+07)
(2.02152e+08 22982.2 -122202 1.93446e+08 4.27104e+07 6.20168e+07)
(2.15382e+08 -748900 -10772.2 1.99258e+08 5.004e+07 1.00019e+08)
(2.19423e+08 -1.42852e+06 -1.13606e+06 2.06352e+08 4.5162e+07 1.09223e+08)
(2.17818e+08 -419048 -3.94475e+06 2.04096e+08 4.13938e+07 1.06858e+08)
(2.18299e+08 -266851 -7.7391e+06 2.07111e+08 4.22268e+07 1.08158e+08)
(2.10901e+08 141933 -1.23512e+07 1.99197e+08 4.16191e+07 9.24777e+07)
(1.9332e+08 947191 -1.75149e+07 1.85534e+08 3.56964e+07 5.05396e+07)
(1.91518e+08 -2.11655e+06 -2.41335e+07 1.81734e+08 3.88398e+07 5.87893e+07)
(1.79577e+08 -1.96831e+06 -4.12516e+07 1.80625e+08 4.02165e+07 4.50437e+07)
(1.93375e+08 302962 -7.86409e+07 2.00673e+08 3.20122e+07 8.91005e+07)
(1.17789e+08 8.33543e+06 -4.7531e+07 1.81815e+08 4.29361e+07 1.12328e+08)
(1.15512e+08 -5.34065e+06 4.05991e+07 1.85849e+08 3.80331e+07 1.30518e+08)
(2.0676e+08 82259.5 7.43599e+07 2.13373e+08 3.29998e+07 1.37974e+08)
(1.98984e+08 219097 4.10797e+07 2.00493e+08 3.83747e+07 8.75965e+07)
(1.94679e+08 1.0658e+06 2.19919e+07 1.9397e+08 2.85405e+07 5.63573e+07)
(2.08549e+08 -176483 1.30581e+07 1.95491e+08 3.75221e+07 9.38358e+07)
(2.12179e+08 -1.32924e+06 7.81839e+06 2.01296e+08 3.62674e+07 9.38089e+07)
(1.88528e+08 -756460 5.86766e+06 1.83965e+08 3.36954e+07 2.72821e+07)
(2.09982e+08 1.05038e+06 6.61584e+06 1.97965e+08 3.47081e+07 8.53165e+07)
(2.16454e+08 1.42009e+06 3.29304e+06 2.05423e+08 3.69046e+07 1.04339e+08)
(2.14253e+08 1.10863e+06 -881458 1.99858e+08 4.04645e+07 9.78727e+07)
(2.04273e+08 111881 -309430 1.89406e+08 3.35742e+07 7.44912e+07)
(2.11929e+08 -520453 580909 1.96676e+08 4.15039e+07 8.97286e+07)
(1.89335e+08 -397013 1.38468e+06 1.83435e+08 3.9112e+07 2.96673e+07)
(2.13811e+08 1.1074e+06 1.17827e+06 2.0113e+08 3.92373e+07 9.37561e+07)
(2.09529e+08 1.34351e+06 -316753 1.93257e+08 4.47215e+07 8.94092e+07)
(2.09747e+08 -1.33668e+06 623509 1.93205e+08 4.46341e+07 8.9234e+07)
(2.14776e+08 -469408 -171748 2.01025e+08 3.9278e+07 9.70207e+07)
(1.98354e+08 451653 -1.2986e+06 1.8869e+08 3.65263e+07 5.48471e+07)
(2.12178e+08 -97153.3 -1.57459e+06 1.97057e+08 4.16951e+07 9.05429e+07)
(2.04579e+08 -137461 -114927 1.89428e+08 3.36089e+07 7.4247e+07)
(2.15421e+08 -1.01217e+06 963172 1.9985e+08 4.09331e+07 1.00045e+08)
(2.17548e+08 -1.31352e+06 -1.81359e+06 2.05113e+08 3.75044e+07 1.04245e+08)
(2.13488e+08 -320447 -4.09835e+06 2.01096e+08 3.54136e+07 9.58551e+07)
(2.158e+08 -42693.9 -7.45811e+06 2.05502e+08 3.53663e+07 1.0161e+08)
(2.06374e+08 171145 -1.3622e+07 1.98136e+08 4.07211e+07 7.89321e+07)
(1.91818e+08 596580 -1.73193e+07 1.79387e+08 2.86253e+07 5.29558e+07)
(1.89564e+08 -1.35395e+06 -2.31047e+07 1.80072e+08 4.14599e+07 5.53026e+07)
(1.72185e+08 -1.02532e+06 -4.29945e+07 1.78623e+08 2.97216e+07 2.431e+07)
(1.91373e+08 -354312 -8.01533e+07 1.9973e+08 2.81087e+07 7.65336e+07)
(1.1904e+08 1.58518e+06 -4.9337e+07 1.84146e+08 3.27213e+07 1.01043e+08)
(1.20401e+08 563382 4.09136e+07 1.89827e+08 2.69109e+07 1.27505e+08)
(2.10949e+08 421633 7.51479e+07 2.15553e+08 2.67422e+07 1.36295e+08)
(1.96465e+08 783081 3.99496e+07 2.00687e+08 2.69107e+07 7.94302e+07)
(1.9669e+08 84238.6 2.10771e+07 1.89776e+08 2.15122e+07 6.74171e+07)
(2.07525e+08 -584224 1.42032e+07 1.94513e+08 2.85628e+07 9.21294e+07)
(2.10893e+08 48445.7 7.43286e+06 2.00729e+08 2.92724e+07 9.03498e+07)
(1.85757e+08 -634637 5.81489e+06 1.8178e+08 2.76283e+07 2.03503e+07)
(2.0628e+08 65856.3 6.86581e+06 1.98145e+08 3.43105e+07 7.27075e+07)
(2.15277e+08 1.00352e+06 3.58e+06 2.0503e+08 2.97434e+07 1.00874e+08)
(2.14666e+08 444707 -836103 2.00573e+08 3.19172e+07 9.89176e+07)
(2.05667e+08 180136 -270199 1.85301e+08 3.049e+07 8.32416e+07)
(2.12249e+08 807950 639157 1.97423e+08 3.29218e+07 9.01515e+07)
(1.9185e+08 -254600 1.22723e+06 1.81817e+08 2.70121e+07 3.90772e+07)
(2.13491e+08 -62589.1 1.81149e+06 2.00108e+08 3.15807e+07 9.32127e+07)
(2.12718e+08 877180 260117 1.96163e+08 3.6612e+07 9.70647e+07)
(2.1293e+08 -1.00897e+06 5959.01 1.96082e+08 3.64837e+07 9.66891e+07)
(2.14236e+08 118493 -1.69755e+06 1.99545e+08 3.08506e+07 9.61899e+07)
(2.02771e+08 372890 -1.06946e+06 1.87347e+08 2.69918e+07 7.03038e+07)
(2.13212e+08 -838152 -727092 1.97756e+08 3.30353e+07 9.33002e+07)
(2.06034e+08 -156554 -195792 1.85327e+08 3.05249e+07 8.29688e+07)
(2.15304e+08 -380377 955417 2.00679e+08 3.19983e+07 9.92736e+07)
(2.16366e+08 -1.00246e+06 -2.04212e+06 2.04875e+08 3.0135e+07 1.00542e+08)
(2.09906e+08 -195170 -4.19404e+06 2.01366e+08 3.44107e+07 8.38274e+07)
(2.14242e+08 447432 -6.54091e+06 2.04928e+08 2.87209e+07 9.72445e+07)
(2.03349e+08 -405291 -1.3592e+07 1.98296e+08 2.85825e+07 6.92049e+07)
(1.89351e+08 108135 -1.70856e+07 1.76392e+08 3.4515e+07 4.83707e+07)
(1.87861e+08 52540.2 -2.3365e+07 1.81024e+08 2.86573e+07 4.94381e+07)
(1.69213e+08 -302238 -4.37261e+07 1.75413e+08 2.37588e+07 1.80565e+07)
(1.89279e+08 -900648 -8.10025e+07 1.97653e+08 2.49185e+07 7.35612e+07)
(1.1759e+08 -2.98037e+06 -5.15312e+07 1.82853e+08 2.62546e+07 9.81362e+07)
(1.14843e+08 6.3744e+06 4.18309e+07 1.86539e+08 1.59445e+07 1.28494e+08)
(2.05894e+08 648263 7.52952e+07 2.15214e+08 2.12419e+07 1.34609e+08)
(1.97982e+08 437714 3.98394e+07 2.00109e+08 1.54353e+07 8.55951e+07)
(1.98206e+08 -912834 2.19229e+07 1.86225e+08 2.06933e+07 7.63359e+07)
(2.05371e+08 -167848 1.43096e+07 1.93647e+08 2.15095e+07 8.56556e+07)
(2.103e+08 1.25432e+06 7.38798e+06 2.00626e+08 2.25537e+07 8.85599e+07)
(1.86996e+08 -33374.9 6.74648e+06 1.79746e+08 1.86133e+07 2.67558e+07)
(2.04129e+08 -688073 6.99661e+06 1.98641e+08 2.27028e+07 6.50068e+07)
(2.14649e+08 124061 2.72007e+06 2.05127e+08 2.286e+07 9.86459e+07)
(2.14522e+08 -556619 -862438 2.01535e+08 2.34749e+07 9.76973e+07)
(2.04455e+08 201864 -189311 1.83813e+08 2.24421e+07 8.02852e+07)
(2.12412e+08 1.71842e+06 -167466 1.98206e+08 2.46615e+07 9.00373e+07)
(1.96441e+08 -209900 1.12075e+06 1.80808e+08 2.15173e+07 5.52946e+07)
(2.13213e+08 -457790 3.12472e+06 1.99174e+08 2.348e+07 9.29183e+07)
(2.1452e+08 600196 649670 1.99443e+08 2.69867e+07 9.95421e+07)
(2.14608e+08 -865818 -504554 1.99349e+08 2.686e+07 9.88745e+07)
(2.13034e+08 -96173.7 -2.0737e+06 1.981e+08 2.23106e+07 9.33747e+07)
(2.05317e+08 374711 -864892 1.85764e+08 2.41069e+07 8.03544e+07)
(2.13491e+08 -1.13953e+06 -840388 1.98701e+08 2.42379e+07 9.34173e+07)
(2.04784e+08 -91856.4 -259445 1.83828e+08 2.24718e+07 8.00623e+07)
(2.14875e+08 599429 1.01031e+06 2.01493e+08 2.36395e+07 9.73629e+07)
(2.15659e+08 -227894 -1.20085e+06 2.05041e+08 2.31257e+07 9.82525e+07)
(2.07571e+08 -86642.4 -4.2517e+06 2.02027e+08 2.22922e+07 7.52331e+07)
(2.13509e+08 478403 -8.51232e+06 2.04746e+08 2.23275e+07 9.53736e+07)
(2.04453e+08 -604627 -1.23505e+07 1.97875e+08 1.65704e+07 7.34402e+07)
(1.86283e+08 -349819 -1.70609e+07 1.77971e+08 2.72019e+07 3.65741e+07)
(1.88254e+08 755703 -2.48861e+07 1.81121e+08 1.64174e+07 5.05761e+07)
(1.68852e+08 105141 -4.36835e+07 1.71456e+08 1.46244e+07 2.30998e+07)
(1.90241e+08 -1.47827e+06 -8.1006e+07 1.97181e+08 1.64624e+07 8.54167e+07)
(1.15433e+08 -7.09975e+06 -5.05157e+07 1.79802e+08 1.73733e+07 1.02827e+08)
(1.12356e+08 2.6009e+06 4.14334e+07 1.83711e+08 1.46051e+07 1.32399e+08)
(2.04303e+08 395553 7.53353e+07 2.16077e+08 1.56089e+07 1.36323e+08)
(1.99749e+08 -379190 3.97614e+07 1.9869e+08 1.5174e+07 9.34865e+07)
(1.97655e+08 -1.16238e+06 2.20237e+07 1.85938e+08 1.52846e+07 7.48598e+07)
(2.02488e+08 502287 1.43491e+07 1.9459e+08 1.95932e+07 7.44552e+07)
(2.10169e+08 1.67132e+06 6.66359e+06 2.00849e+08 1.61584e+07 8.77906e+07)
(1.91328e+08 525851 5.73758e+06 1.80118e+08 1.8724e+07 4.10392e+07)
(2.06138e+08 -846775 7.68015e+06 1.98004e+08 1.10632e+07 7.22988e+07)
(2.14461e+08 -619749 3.67433e+06 2.05287e+08 1.62505e+07 9.79426e+07)
(2.13981e+08 -1.37243e+06 -1.0021e+06 2.02443e+08 1.58713e+07 9.48204e+07)
(1.99643e+08 165205 -89049.6 1.8409e+08 1.95354e+07 6.37181e+07)
(2.12159e+08 1.90874e+06 413412 1.99121e+08 1.6982e+07 8.8493e+07)
(1.99284e+08 -290473 989250 1.83144e+08 2.53759e+07 6.27885e+07)
(2.12187e+08 -204516 2.92678e+06 1.98078e+08 1.54541e+07 9.05013e+07)
(2.15114e+08 557693 934200 2.01729e+08 1.81778e+07 9.9308e+07)
(2.1508e+08 -853006 -920192 2.01709e+08 1.81865e+07 9.83487e+07)
(2.10686e+08 -620282 -2.2519e+06 1.97318e+08 1.59063e+07 8.63031e+07)
(2.04936e+08 443033 -682218 1.86591e+08 1.71881e+07 7.86874e+07)
(2.12925e+08 -1.07421e+06 -1.03243e+06 1.99703e+08 1.6126e+07 9.0824e+07)
(1.99918e+08 -3510.89 -269618 1.84108e+08 1.95694e+07 6.36131e+07)
(2.14232e+08 1.39889e+06 1.16729e+06 2.02293e+08 1.6062e+07 9.43887e+07)
(2.15361e+08 472056 -2.2274e+06 2.05232e+08 1.64273e+07 9.76065e+07)
(2.09162e+08 -26806.5 -4.26132e+06 2.01473e+08 1.03383e+07 8.08364e+07)
(2.13492e+08 5730.39 -7.59561e+06 2.04682e+08 1.61323e+07 9.55517e+07)
(2.06101e+08 -303480 -1.25173e+07 1.9638e+08 1.60522e+07 8.03598e+07)
(1.84428e+08 -585368 -1.69246e+07 1.77449e+08 8.81843e+06 3.07716e+07)
(1.87876e+08 417352 -2.56519e+07 1.81178e+08 2.06313e+07 4.90803e+07)
(1.70892e+08 361088 -4.37614e+07 1.70518e+08 1.64539e+07 3.16165e+07)
(1.87547e+08 -184263 -8.0398e+07 1.94143e+08 1.6059e+07 9.5436e+07)
(1.10699e+08 -2.91098e+06 -4.98547e+07 1.76577e+08 1.62703e+07 1.09902e+08)
(1.12555e+08 342869 4.07719e+07 1.8417e+08 9.61825e+06 1.35855e+08)
(2.04407e+08 112338 7.52852e+07 2.16272e+08 9.48069e+06 1.38341e+08)
(2.01462e+08 -847104 3.97678e+07 1.99904e+08 1.02335e+07 9.82434e+07)
(1.94733e+08 -686311 2.26432e+07 1.88423e+08 1.49458e+07 6.25985e+07)
(1.99109e+08 918148 1.43265e+07 1.94495e+08 7.06589e+06 6.28687e+07)
(2.10145e+08 1.22861e+06 7.08102e+06 2.01066e+08 9.72154e+06 8.75764e+07)
(1.94251e+08 485664 5.6486e+06 1.80657e+08 1.17246e+07 5.05766e+07)
(2.0844e+08 -714042 6.47398e+06 1.96206e+08 1.03573e+07 8.1862e+07)
(2.14422e+08 -637058 3.64421e+06 2.05353e+08 9.84366e+06 9.8139e+07)
(2.13271e+08 -1.35978e+06 -256125 2.03153e+08 9.12456e+06 9.15159e+07)
(1.92591e+08 107146 -3878.71 1.85173e+08 1.301e+07 3.9133e+07)
(2.11605e+08 1.62817e+06 973901 1.99969e+08 9.80492e+06 8.61194e+07)
(1.999e+08 -467397 812435 1.86404e+08 1.15642e+07 6.2244e+07)
(2.1011e+08 -170768 1.69897e+06 1.97349e+08 9.41383e+06 8.43462e+07)
(2.15046e+08 634054 1.19788e+06 2.03044e+08 1.03977e+07 9.81163e+07)
(2.14962e+08 -693897 -956044 2.03144e+08 1.05905e+07 9.71595e+07)
(2.08047e+08 -946564 -2.27535e+06 1.99072e+08 1.49775e+07 7.57509e+07)
(2.01824e+08 408709 -817891 1.89668e+08 1.5968e+07 6.58998e+07)
(2.11879e+08 -535894 -349988 2.00644e+08 9.0662e+06 8.67936e+07)
(1.92794e+08 52600.4 -241761 1.85186e+08 1.2997e+07 3.91856e+07)
(2.13497e+08 1.37301e+06 432667 2.02959e+08 9.25359e+06 9.11815e+07)
(2.15262e+08 507538 -2.29256e+06 2.05329e+08 9.92371e+06 9.78947e+07)
(2.11048e+08 -4125.22 -4.24837e+06 1.99683e+08 9.70088e+06 8.88347e+07)
(2.13793e+08 -136720 -7.30345e+06 2.04717e+08 9.83994e+06 9.64968e+07)
(2.07963e+08 -218540 -1.37367e+07 1.97327e+08 1.09461e+07 8.54172e+07)