/*--------------------------------*- C++ -*----------------------------------*\
| =========                 |                                                 |
| \\      /  F ield         | OpenFOAM: The Open Source CFD Toolbox           |
|  \\    /   O peration     | Version:  2106                                  |
|   \\  /    A nd           | Website:  www.openfoam.com                      |
|    \\/     M anipulation  |                                                 |
\*---------------------------------------------------------------------------*/
FoamFile
{
    version     2.0;
    format      ascii;
    arch        "LSB;label=32;scalar=64";
    class       volVectorField;
    location    "141";
    object      D;
}
// * * * * * * * * * * * * * * * * * * * * * * * * * * * * * * * * * * * * * //

dimensions      [0 1 0 0 0 0 0];

internalField   nonuniform List<vector> 
9000
(
(1.14357e-05 2.09314e-05 3.19702e-06)
(1.32906e-06 2.20063e-05 1.16054e-07)
(2.18684e-07 2.33644e-05 1.27072e-06)
(3.76204e-08 2.36678e-05 1.48526e-06)
(4.82265e-09 2.36807e-05 1.49055e-06)
(1.12881e-09 2.36734e-05 1.48629e-06)
(9.31347e-10 2.36721e-05 1.48569e-06)
(7.50889e-10 2.36724e-05 1.48593e-06)
(5.40646e-10 2.36726e-05 1.48615e-06)
(3.74346e-10 2.36728e-05 1.48629e-06)
(2.54353e-10 2.36729e-05 1.48638e-06)
(1.68483e-10 2.3673e-05 1.48645e-06)
(1.05876e-10 2.36731e-05 1.48649e-06)
(5.80886e-11 2.36731e-05 1.48651e-06)
(1.84775e-11 2.36731e-05 1.48652e-06)
(-1.85234e-11 2.36731e-05 1.48652e-06)
(-5.8118e-11 2.36731e-05 1.48651e-06)
(-1.05875e-10 2.36731e-05 1.48649e-06)
(-1.68441e-10 2.3673e-05 1.48645e-06)
(-2.54264e-10 2.36729e-05 1.48638e-06)
(-3.74204e-10 2.36728e-05 1.48629e-06)
(-5.4045e-10 2.36726e-05 1.48615e-06)
(-7.50644e-10 2.36724e-05 1.48594e-06)
(-9.31065e-10 2.36721e-05 1.48569e-06)
(-1.12851e-09 2.36734e-05 1.48629e-06)
(-4.82233e-09 2.36807e-05 1.49056e-06)
(-3.76201e-08 2.36678e-05 1.48526e-06)
(-2.18684e-07 2.33644e-05 1.27072e-06)
(-1.32906e-06 2.20063e-05 1.16054e-07)
(-1.14357e-05 2.09314e-05 3.19702e-06)
(1.11058e-05 1.26075e-05 -5.83845e-06)
(1.22746e-06 1.32182e-05 -9.25794e-06)
(1.42328e-07 1.40392e-05 -8.68265e-06)
(1.96734e-08 1.42434e-05 -8.60169e-06)
(4.04697e-09 1.42521e-05 -8.60233e-06)
(1.59569e-09 1.42463e-05 -8.60342e-06)
(9.97398e-10 1.42452e-05 -8.60347e-06)
(7.10949e-10 1.42454e-05 -8.6034e-06)
(5.05914e-10 1.42456e-05 -8.60334e-06)
(3.51844e-10 1.42457e-05 -8.6033e-06)
(2.39458e-10 1.42457e-05 -8.60327e-06)
(1.58617e-10 1.42458e-05 -8.60325e-06)
(9.96595e-11 1.42458e-05 -8.60324e-06)
(5.46729e-11 1.42458e-05 -8.60323e-06)
(1.73887e-11 1.42459e-05 -8.60323e-06)
(-1.74373e-11 1.42459e-05 -8.60323e-06)
(-5.47063e-11 1.42458e-05 -8.60323e-06)
(-9.96657e-11 1.42458e-05 -8.60324e-06)
(-1.58589e-10 1.42458e-05 -8.60325e-06)
(-2.39391e-10 1.42457e-05 -8.60327e-06)
(-3.51737e-10 1.42457e-05 -8.6033e-06)
(-5.05766e-10 1.42456e-05 -8.60334e-06)
(-7.10757e-10 1.42454e-05 -8.6034e-06)
(-9.97164e-10 1.42452e-05 -8.60347e-06)
(-1.59542e-09 1.42463e-05 -8.60342e-06)
(-4.04671e-09 1.42521e-05 -8.60233e-06)
(-1.96732e-08 1.42434e-05 -8.60169e-06)
(-1.42328e-07 1.40392e-05 -8.68265e-06)
(-1.22746e-06 1.32182e-05 -9.25794e-06)
(-1.11058e-05 1.26075e-05 -5.83845e-06)
(1.11723e-05 7.79827e-06 -7.41033e-06)
(1.22342e-06 8.22043e-06 -1.09389e-05)
(1.29183e-07 8.77108e-06 -1.04598e-05)
(1.40188e-08 8.91614e-06 -1.0404e-05)
(3.53749e-09 8.92391e-06 -1.0406e-05)
(1.75625e-09 8.91972e-06 -1.04064e-05)
(1.02702e-09 8.91881e-06 -1.04064e-05)
(6.89869e-10 8.91892e-06 -1.04063e-05)
(4.85705e-10 8.91905e-06 -1.04063e-05)
(3.38149e-10 8.91913e-06 -1.04063e-05)
(2.30323e-10 8.91918e-06 -1.04063e-05)
(1.52581e-10 8.91921e-06 -1.04063e-05)
(9.5868e-11 8.91923e-06 -1.04062e-05)
(5.25953e-11 8.91924e-06 -1.04062e-05)
(1.67297e-11 8.91925e-06 -1.04062e-05)
(-1.67729e-11 8.91925e-06 -1.04062e-05)
(-5.26254e-11 8.91924e-06 -1.04062e-05)
(-9.58748e-11 8.91923e-06 -1.04062e-05)
(-1.52558e-10 8.91921e-06 -1.04063e-05)
(-2.30268e-10 8.91918e-06 -1.04063e-05)
(-3.38062e-10 8.91913e-06 -1.04063e-05)
(-4.85583e-10 8.91905e-06 -1.04063e-05)
(-6.89706e-10 8.91892e-06 -1.04063e-05)
(-1.02682e-09 8.91881e-06 -1.04064e-05)
(-1.75602e-09 8.91972e-06 -1.04064e-05)
(-3.53727e-09 8.92391e-06 -1.0406e-05)
(-1.40186e-08 8.91614e-06 -1.0404e-05)
(-1.29182e-07 8.77109e-06 -1.04598e-05)
(-1.22342e-06 8.22043e-06 -1.09389e-05)
(-1.11723e-05 7.79827e-06 -7.41034e-06)
(1.15555e-05 4.90459e-06 -7.09418e-06)
(1.26536e-06 5.17368e-06 -1.07494e-05)
(1.41947e-07 5.57191e-06 -1.02429e-05)
(1.50052e-08 5.67859e-06 -1.01833e-05)
(3.37512e-09 5.68589e-06 -1.01852e-05)
(1.74928e-09 5.68311e-06 -1.01857e-05)
(1.02723e-09 5.68241e-06 -1.01857e-05)
(6.78061e-10 5.68247e-06 -1.01856e-05)
(4.74088e-10 5.68257e-06 -1.01856e-05)
(3.29764e-10 5.68262e-06 -1.01856e-05)
(2.24624e-10 5.68265e-06 -1.01856e-05)
(1.48813e-10 5.68268e-06 -1.01856e-05)
(9.35066e-11 5.68269e-06 -1.01856e-05)
(5.1305e-11 5.6827e-06 -1.01856e-05)
(1.6323e-11 5.6827e-06 -1.01856e-05)
(-1.63568e-11 5.6827e-06 -1.01856e-05)
(-5.13279e-11 5.6827e-06 -1.01856e-05)
(-9.35101e-11 5.68269e-06 -1.01856e-05)
(-1.48792e-10 5.68268e-06 -1.01856e-05)
(-2.24576e-10 5.68265e-06 -1.01856e-05)
(-3.29687e-10 5.68262e-06 -1.01856e-05)
(-4.73979e-10 5.68257e-06 -1.01856e-05)
(-6.77913e-10 5.68247e-06 -1.01856e-05)
(-1.02704e-09 5.68241e-06 -1.01857e-05)
(-1.74906e-09 5.68311e-06 -1.01857e-05)
(-3.3749e-09 5.68589e-06 -1.01852e-05)
(-1.5005e-08 5.6786e-06 -1.01833e-05)
(-1.41947e-07 5.57191e-06 -1.02429e-05)
(-1.26536e-06 5.17369e-06 -1.07494e-05)
(-1.15555e-05 4.90459e-06 -7.09418e-06)
(1.20298e-05 3.09813e-06 -6.68072e-06)
(1.32367e-06 3.2448e-06 -1.04777e-05)
(1.6033e-07 3.53995e-06 -9.93456e-06)
(1.83735e-08 3.61971e-06 -9.86844e-06)
(3.47333e-09 3.6263e-06 -9.87031e-06)
(1.68122e-09 3.62457e-06 -9.87095e-06)
(1.00988e-09 3.62406e-06 -9.87091e-06)
(6.69291e-10 3.62409e-06 -9.87087e-06)
(4.66436e-10 3.62416e-06 -9.87084e-06)
(3.23905e-10 3.6242e-06 -9.87082e-06)
(2.20542e-10 3.62422e-06 -9.8708e-06)
(1.46101e-10 3.62424e-06 -9.8708e-06)
(9.18084e-11 3.62425e-06 -9.87079e-06)
(5.03787e-11 3.62426e-06 -9.87078e-06)
(1.60326e-11 3.62426e-06 -9.87078e-06)
(-1.60557e-11 3.62426e-06 -9.87078e-06)
(-5.03931e-11 3.62426e-06 -9.87078e-06)
(-9.18073e-11 3.62425e-06 -9.87079e-06)
(-1.4608e-10 3.62424e-06 -9.8708e-06)
(-2.20498e-10 3.62422e-06 -9.8708e-06)
(-3.23835e-10 3.6242e-06 -9.87082e-06)
(-4.66334e-10 3.62416e-06 -9.87084e-06)
(-6.69152e-10 3.62409e-06 -9.87087e-06)
(-1.0097e-09 3.62406e-06 -9.87091e-06)
(-1.68101e-09 3.62457e-06 -9.87095e-06)
(-3.47312e-09 3.6263e-06 -9.87031e-06)
(-1.83732e-08 3.61971e-06 -9.86844e-06)
(-1.6033e-07 3.53995e-06 -9.93456e-06)
(-1.32367e-06 3.2448e-06 -1.04777e-05)
(-1.20298e-05 3.09813e-06 -6.68073e-06)
(1.24448e-05 1.95566e-06 -6.44927e-06)
(1.38121e-06 2.02183e-06 -1.03679e-05)
(1.7699e-07 2.23856e-06 -9.79897e-06)
(2.19782e-08 2.29835e-06 -9.72867e-06)
(3.71022e-09 2.30406e-06 -9.73049e-06)
(1.60953e-09 2.30304e-06 -9.73121e-06)
(9.85511e-10 2.30268e-06 -9.73119e-06)
(6.6106e-10 2.3027e-06 -9.73115e-06)
(4.60398e-10 2.30275e-06 -9.73112e-06)
(3.1917e-10 2.30278e-06 -9.73109e-06)
(2.17175e-10 2.3028e-06 -9.73108e-06)
(1.4385e-10 2.30281e-06 -9.73107e-06)
(9.03965e-11 2.30281e-06 -9.73106e-06)
(4.96086e-11 2.30282e-06 -9.73106e-06)
(1.57916e-11 2.30282e-06 -9.73106e-06)
(-1.58046e-11 2.30282e-06 -9.73106e-06)
(-4.9615e-11 2.30282e-06 -9.73106e-06)
(-9.0391e-11 2.30281e-06 -9.73106e-06)
(-1.43829e-10 2.30281e-06 -9.73107e-06)
(-2.17134e-10 2.3028e-06 -9.73108e-06)
(-3.19105e-10 2.30278e-06 -9.73109e-06)
(-4.60302e-10 2.30275e-06 -9.73112e-06)
(-6.60928e-10 2.3027e-06 -9.73115e-06)
(-9.85339e-10 2.30268e-06 -9.73119e-06)
(-1.60932e-09 2.30304e-06 -9.73121e-06)
(-3.71e-09 2.30406e-06 -9.73049e-06)
(-2.1978e-08 2.29835e-06 -9.72867e-06)
(-1.7699e-07 2.23856e-06 -9.79897e-06)
(-1.38121e-06 2.02183e-06 -1.03679e-05)
(-1.24448e-05 1.95566e-06 -6.44927e-06)
(1.27497e-05 1.23259e-06 -6.33868e-06)
(1.42917e-06 1.25481e-06 -1.03456e-05)
(1.90334e-07 1.41022e-06 -9.76018e-06)
(2.5057e-08 1.4547e-06 -9.68752e-06)
(3.99011e-09 1.45947e-06 -9.68935e-06)
(1.55544e-09 1.45891e-06 -9.69011e-06)
(9.60967e-10 1.45867e-06 -9.69009e-06)
(6.529e-10 1.45868e-06 -9.69005e-06)
(4.55065e-10 1.45872e-06 -9.69002e-06)
(3.1502e-10 1.45874e-06 -9.69e-06)
(2.14192e-10 1.45875e-06 -9.68999e-06)
(1.41844e-10 1.45876e-06 -9.68998e-06)
(8.91347e-11 1.45877e-06 -9.68997e-06)
(4.89194e-11 1.45877e-06 -9.68997e-06)
(1.55756e-11 1.45877e-06 -9.68997e-06)
(-1.558e-11 1.45877e-06 -9.68997e-06)
(-4.8919e-11 1.45877e-06 -9.68997e-06)
(-8.91254e-11 1.45877e-06 -9.68997e-06)
(-1.41823e-10 1.45876e-06 -9.68998e-06)
(-2.14154e-10 1.45875e-06 -9.68999e-06)
(-3.14959e-10 1.45874e-06 -9.69e-06)
(-4.54976e-10 1.45872e-06 -9.69002e-06)
(-6.52775e-10 1.45868e-06 -9.69005e-06)
(-9.60803e-10 1.45867e-06 -9.69009e-06)
(-1.55524e-09 1.45891e-06 -9.69011e-06)
(-3.98989e-09 1.45947e-06 -9.68935e-06)
(-2.50567e-08 1.4547e-06 -9.68752e-06)
(-1.90334e-07 1.41022e-06 -9.76018e-06)
(-1.42917e-06 1.25481e-06 -1.03456e-05)
(-1.27497e-05 1.23259e-06 -6.33869e-06)
(1.29514e-05 7.75899e-07 -6.28291e-06)
(1.46486e-06 7.78181e-07 -1.0348e-05)
(2.00548e-07 8.86671e-07 -9.75212e-06)
(2.74843e-08 9.19267e-07 -9.6781e-06)
(4.25793e-09 9.23155e-07 -9.67994e-06)
(1.52123e-09 9.22884e-07 -9.68071e-06)
(9.39608e-10 9.22728e-07 -9.6807e-06)
(6.45089e-10 9.22735e-07 -9.68066e-06)
(4.50211e-10 9.22761e-07 -9.68064e-06)
(3.11309e-10 9.22778e-07 -9.68062e-06)
(2.11516e-10 9.22789e-07 -9.6806e-06)
(1.40035e-10 9.22796e-07 -9.68059e-06)
(8.79935e-11 9.22801e-07 -9.68059e-06)
(4.82949e-11 9.22803e-07 -9.68059e-06)
(1.53795e-11 9.22804e-07 -9.68058e-06)
(-1.53771e-11 9.22804e-07 -9.68058e-06)
(-4.82892e-11 9.22803e-07 -9.68059e-06)
(-8.79813e-11 9.228e-07 -9.68059e-06)
(-1.40013e-10 9.22796e-07 -9.68059e-06)
(-2.11479e-10 9.22789e-07 -9.6806e-06)
(-3.11253e-10 9.22778e-07 -9.68062e-06)
(-4.50126e-10 9.22761e-07 -9.68064e-06)
(-6.4497e-10 9.22735e-07 -9.68066e-06)
(-9.3945e-10 9.22728e-07 -9.6807e-06)
(-1.52103e-09 9.22885e-07 -9.68071e-06)
(-4.25771e-09 9.23155e-07 -9.67994e-06)
(-2.74841e-08 9.19268e-07 -9.6781e-06)
(-2.00548e-07 8.86671e-07 -9.75212e-06)
(-1.46486e-06 7.78181e-07 -1.0348e-05)
(-1.29514e-05 7.75899e-07 -6.28291e-06)
(1.30765e-05 4.87782e-07 -6.25108e-06)
(1.48932e-06 4.8306e-07 -1.03525e-05)
(2.08158e-07 5.56935e-07 -9.75004e-06)
(2.9342e-08 5.80382e-07 -9.67518e-06)
(4.49013e-09 5.83468e-07 -9.67703e-06)
(1.50227e-09 5.83368e-07 -9.67782e-06)
(9.22448e-10 5.8327e-07 -9.67781e-06)
(6.37993e-10 5.83276e-07 -9.67777e-06)
(4.45844e-10 5.83295e-07 -9.67774e-06)
(3.0803e-10 5.83309e-07 -9.67773e-06)
(2.09148e-10 5.83318e-07 -9.67771e-06)
(1.38429e-10 5.83323e-07 -9.6777e-06)
(8.69775e-11 5.83327e-07 -9.6777e-06)
(4.7738e-11 5.83329e-07 -9.67769e-06)
(1.5204e-11 5.8333e-07 -9.67769e-06)
(-1.51966e-11 5.8333e-07 -9.67769e-06)
(-4.77283e-11 5.83329e-07 -9.67769e-06)
(-8.69633e-11 5.83327e-07 -9.6777e-06)
(-1.38407e-10 5.83323e-07 -9.6777e-06)
(-2.09114e-10 5.83318e-07 -9.67771e-06)
(-3.07977e-10 5.83309e-07 -9.67773e-06)
(-4.45764e-10 5.83295e-07 -9.67774e-06)
(-6.3788e-10 5.83276e-07 -9.67777e-06)
(-9.22296e-10 5.8327e-07 -9.67781e-06)
(-1.50208e-09 5.83368e-07 -9.67782e-06)
(-4.48991e-09 5.83469e-07 -9.67703e-06)
(-2.93417e-08 5.80382e-07 -9.67518e-06)
(-2.08158e-07 5.56935e-07 -9.75004e-06)
(-1.48932e-06 4.8306e-07 -1.03525e-05)
(-1.30765e-05 4.87782e-07 -6.25108e-06)
(1.31513e-05 3.05905e-07 -6.23148e-06)
(1.50512e-06 3.0001e-07 -1.03549e-05)
(2.1368e-07 3.49225e-07 -9.74846e-06)
(3.0742e-08 3.65744e-07 -9.67308e-06)
(4.6808e-09 3.68128e-07 -9.67493e-06)
(1.49316e-09 3.68122e-07 -9.67572e-06)
(9.09306e-10 3.68064e-07 -9.67571e-06)
(6.31865e-10 3.68069e-07 -9.67568e-06)
(4.42034e-10 3.68084e-07 -9.67565e-06)
(3.05206e-10 3.68095e-07 -9.67563e-06)
(2.0711e-10 3.68101e-07 -9.67562e-06)
(1.37042e-10 3.68106e-07 -9.67561e-06)
(8.60979e-11 3.68109e-07 -9.6756e-06)
(4.72549e-11 3.6811e-07 -9.6756e-06)
(1.50515e-11 3.68111e-07 -9.6756e-06)
(-1.50406e-11 3.68111e-07 -9.6756e-06)
(-4.72425e-11 3.6811e-07 -9.6756e-06)
(-8.60823e-11 3.68109e-07 -9.6756e-06)
(-1.37021e-10 3.68106e-07 -9.67561e-06)
(-2.07078e-10 3.68101e-07 -9.67562e-06)
(-3.05156e-10 3.68095e-07 -9.67563e-06)
(-4.41958e-10 3.68084e-07 -9.67565e-06)
(-6.31757e-10 3.68069e-07 -9.67568e-06)
(-9.09157e-10 3.68064e-07 -9.67571e-06)
(-1.49298e-09 3.68122e-07 -9.67572e-06)
(-4.68058e-09 3.68128e-07 -9.67493e-06)
(-3.07417e-08 3.65744e-07 -9.67308e-06)
(-2.1368e-07 3.49225e-07 -9.74846e-06)
(-1.50512e-06 3.0001e-07 -1.03549e-05)
(-1.31513e-05 3.05905e-07 -6.23148e-06)
(1.31952e-05 1.90727e-07 -6.21928e-06)
(1.5149e-06 1.85767e-07 -1.03558e-05)
(2.17568e-07 2.17875e-07 -9.74703e-06)
(3.17784e-08 2.29238e-07 -9.67132e-06)
(4.83151e-09 2.31021e-07 -9.67317e-06)
(1.48971e-09 2.31061e-07 -9.67396e-06)
(8.99555e-10 2.31028e-07 -9.67396e-06)
(6.26812e-10 2.31033e-07 -9.67392e-06)
(4.38834e-10 2.31044e-07 -9.67389e-06)
(3.02852e-10 2.31052e-07 -9.67388e-06)
(2.05413e-10 2.31058e-07 -9.67386e-06)
(1.35884e-10 2.31061e-07 -9.67386e-06)
(8.5362e-11 2.31063e-07 -9.67385e-06)
(4.68501e-11 2.31064e-07 -9.67385e-06)
(1.49233e-11 2.31065e-07 -9.67385e-06)
(-1.49102e-11 2.31065e-07 -9.67385e-06)
(-4.6836e-11 2.31064e-07 -9.67385e-06)
(-8.53456e-11 2.31063e-07 -9.67385e-06)
(-1.35863e-10 2.31061e-07 -9.67386e-06)
(-2.05382e-10 2.31058e-07 -9.67386e-06)
(-3.02805e-10 2.31052e-07 -9.67388e-06)
(-4.38761e-10 2.31044e-07 -9.67389e-06)
(-6.26707e-10 2.31033e-07 -9.67392e-06)
(-8.99411e-10 2.31028e-07 -9.67396e-06)
(-1.48953e-09 2.31061e-07 -9.67396e-06)
(-4.83129e-09 2.31021e-07 -9.67317e-06)
(-3.17781e-08 2.29238e-07 -9.67132e-06)
(-2.17567e-07 2.17875e-07 -9.74703e-06)
(-1.5149e-06 1.85767e-07 -1.03558e-05)
(-1.31952e-05 1.90727e-07 -6.21928e-06)
(1.32207e-05 1.17161e-07 -6.21181e-06)
(1.52078e-06 1.13596e-07 -1.03562e-05)
(2.2021e-07 1.33998e-07 -9.74596e-06)
(3.25234e-08 1.41565e-07 -9.67005e-06)
(4.94603e-09 1.42841e-07 -9.6719e-06)
(1.48917e-09 1.42895e-07 -9.67269e-06)
(8.9254e-10 1.42878e-07 -9.67269e-06)
(6.22847e-10 1.42883e-07 -9.67265e-06)
(4.36274e-10 1.42891e-07 -9.67263e-06)
(3.00978e-10 1.42897e-07 -9.67261e-06)
(2.04062e-10 1.42901e-07 -9.6726e-06)
(1.3496e-10 1.42904e-07 -9.67259e-06)
(8.47737e-11 1.42906e-07 -9.67258e-06)
(4.65259e-11 1.42907e-07 -9.67258e-06)
(1.48203e-11 1.42907e-07 -9.67258e-06)
(-1.48061e-11 1.42907e-07 -9.67258e-06)
(-4.6511e-11 1.42906e-07 -9.67258e-06)
(-8.4757e-11 1.42906e-07 -9.67258e-06)
(-1.34939e-10 1.42904e-07 -9.67259e-06)
(-2.04031e-10 1.42901e-07 -9.6726e-06)
(-3.00931e-10 1.42897e-07 -9.67261e-06)
(-4.36204e-10 1.42891e-07 -9.67263e-06)
(-6.22745e-10 1.42883e-07 -9.67265e-06)
(-8.92399e-10 1.42878e-07 -9.67269e-06)
(-1.48899e-09 1.42895e-07 -9.67269e-06)
(-4.94581e-09 1.42841e-07 -9.6719e-06)
(-3.25232e-08 1.41565e-07 -9.67005e-06)
(-2.2021e-07 1.33998e-07 -9.74596e-06)
(-1.52078e-06 1.13596e-07 -1.03562e-05)
(-1.32207e-05 1.17161e-07 -6.21181e-06)
(1.32354e-05 6.91648e-08 -6.20738e-06)
(1.5242e-06 6.68715e-08 -1.03563e-05)
(2.21922e-07 7.92159e-08 -9.74527e-06)
(3.3033e-08 8.39726e-08 -9.66924e-06)
(5.02816e-09 8.48224e-08 -9.67109e-06)
(1.48985e-09 8.48723e-08 -9.67189e-06)
(8.8772e-10 8.48644e-08 -9.67188e-06)
(6.19934e-10 8.4868e-08 -9.67185e-06)
(4.34361e-10 8.48738e-08 -9.67182e-06)
(2.99579e-10 8.4878e-08 -9.67181e-06)
(2.03054e-10 8.48808e-08 -9.67179e-06)
(1.3427e-10 8.48826e-08 -9.67179e-06)
(8.43334e-11 8.48837e-08 -9.67178e-06)
(4.6283e-11 8.48844e-08 -9.67178e-06)
(1.4743e-11 8.48847e-08 -9.67178e-06)
(-1.47283e-11 8.48846e-08 -9.67178e-06)
(-4.62677e-11 8.48843e-08 -9.67178e-06)
(-8.43166e-11 8.48837e-08 -9.67178e-06)
(-1.34249e-10 8.48826e-08 -9.67179e-06)
(-2.03024e-10 8.48808e-08 -9.67179e-06)
(-2.99534e-10 8.4878e-08 -9.67181e-06)
(-4.34293e-10 8.48737e-08 -9.67182e-06)
(-6.19835e-10 8.4868e-08 -9.67185e-06)
(-8.87582e-10 8.48644e-08 -9.67188e-06)
(-1.48967e-09 8.48723e-08 -9.67189e-06)
(-5.02795e-09 8.48225e-08 -9.67109e-06)
(-3.30327e-08 8.39726e-08 -9.66924e-06)
(-2.21922e-07 7.92159e-08 -9.74527e-06)
(-1.5242e-06 6.68716e-08 -1.03563e-05)
(-1.32354e-05 6.91652e-08 -6.20738e-06)
(1.32434e-05 3.62616e-08 -6.20492e-06)
(1.52608e-06 3.50036e-08 -1.03564e-05)
(2.22937e-07 4.15826e-08 -9.74489e-06)
(3.33488e-08 4.41874e-08 -9.66879e-06)
(5.08104e-09 4.46721e-08 -9.67064e-06)
(1.49076e-09 4.47059e-08 -9.67143e-06)
(8.84708e-10 4.47028e-08 -9.67143e-06)
(6.18027e-10 4.47051e-08 -9.67139e-06)
(4.33092e-10 4.47085e-08 -9.67137e-06)
(2.98652e-10 4.4711e-08 -9.67135e-06)
(2.02386e-10 4.47127e-08 -9.67134e-06)
(1.33812e-10 4.47138e-08 -9.67133e-06)
(8.40406e-11 4.47144e-08 -9.67133e-06)
(4.61213e-11 4.47148e-08 -9.67132e-06)
(1.46914e-11 4.4715e-08 -9.67132e-06)
(-1.46766e-11 4.47149e-08 -9.67132e-06)
(-4.61059e-11 4.47147e-08 -9.67132e-06)
(-8.40239e-11 4.47144e-08 -9.67133e-06)
(-1.33791e-10 4.47137e-08 -9.67133e-06)
(-2.02356e-10 4.47126e-08 -9.67134e-06)
(-2.98608e-10 4.4711e-08 -9.67135e-06)
(-4.33026e-10 4.47085e-08 -9.67137e-06)
(-6.1793e-10 4.47051e-08 -9.67139e-06)
(-8.84573e-10 4.47028e-08 -9.67143e-06)
(-1.49059e-09 4.47059e-08 -9.67143e-06)
(-5.08084e-09 4.46721e-08 -9.67064e-06)
(-3.33486e-08 4.41874e-08 -9.66879e-06)
(-2.22937e-07 4.15827e-08 -9.74489e-06)
(-1.52608e-06 3.50037e-08 -1.03564e-05)
(-1.32434e-05 3.6262e-08 -6.20492e-06)
(1.3247e-05 1.12682e-08 -6.20383e-06)
(1.52691e-06 1.08693e-08 -1.03564e-05)
(2.23408e-07 1.29308e-08 -9.74472e-06)
(3.34995e-08 1.37586e-08 -9.66859e-06)
(5.10691e-09 1.3916e-08 -9.67043e-06)
(1.49134e-09 1.39279e-08 -9.67123e-06)
(8.83261e-10 1.39272e-08 -9.67123e-06)
(6.17084e-10 1.3928e-08 -9.67119e-06)
(4.3246e-10 1.39291e-08 -9.67117e-06)
(2.9819e-10 1.393e-08 -9.67115e-06)
(2.02052e-10 1.39306e-08 -9.67114e-06)
(1.33583e-10 1.39309e-08 -9.67113e-06)
(8.38941e-11 1.39311e-08 -9.67112e-06)
(4.60403e-11 1.39313e-08 -9.67112e-06)
(1.46656e-11 1.39313e-08 -9.67112e-06)
(-1.46507e-11 1.39313e-08 -9.67112e-06)
(-4.60248e-11 1.39312e-08 -9.67112e-06)
(-8.38774e-11 1.39311e-08 -9.67112e-06)
(-1.33562e-10 1.39309e-08 -9.67113e-06)
(-2.02023e-10 1.39305e-08 -9.67114e-06)
(-2.98146e-10 1.39299e-08 -9.67115e-06)
(-4.32395e-10 1.39291e-08 -9.67117e-06)
(-6.1699e-10 1.3928e-08 -9.67119e-06)
(-8.83129e-10 1.39272e-08 -9.67123e-06)
(-1.49117e-09 1.39279e-08 -9.67123e-06)
(-5.10671e-09 1.3916e-08 -9.67043e-06)
(-3.34993e-08 1.37587e-08 -9.66859e-06)
(-2.23407e-07 1.29309e-08 -9.74472e-06)
(-1.52691e-06 1.08695e-08 -1.03564e-05)
(-1.3247e-05 1.12686e-08 -6.20383e-06)
(1.3247e-05 -1.12682e-08 -6.20383e-06)
(1.52691e-06 -1.087e-08 -1.03564e-05)
(2.23408e-07 -1.29315e-08 -9.74471e-06)
(3.34995e-08 -1.37591e-08 -9.66859e-06)
(5.10692e-09 -1.39163e-08 -9.67043e-06)
(1.49134e-09 -1.39281e-08 -9.67123e-06)
(8.83261e-10 -1.39273e-08 -9.67123e-06)
(6.17084e-10 -1.3928e-08 -9.67119e-06)
(4.32459e-10 -1.39291e-08 -9.67117e-06)
(2.98188e-10 -1.39299e-08 -9.67115e-06)
(2.02051e-10 -1.39304e-08 -9.67114e-06)
(1.33582e-10 -1.39307e-08 -9.67113e-06)
(8.38932e-11 -1.39309e-08 -9.67112e-06)
(4.60398e-11 -1.39311e-08 -9.67112e-06)
(1.46656e-11 -1.39311e-08 -9.67112e-06)
(-1.46502e-11 -1.39312e-08 -9.67112e-06)
(-4.6024e-11 -1.39311e-08 -9.67112e-06)
(-8.38764e-11 -1.3931e-08 -9.67112e-06)
(-1.33561e-10 -1.39308e-08 -9.67113e-06)
(-2.02022e-10 -1.39305e-08 -9.67114e-06)
(-2.98146e-10 -1.39299e-08 -9.67115e-06)
(-4.32396e-10 -1.39291e-08 -9.67117e-06)
(-6.16993e-10 -1.3928e-08 -9.67119e-06)
(-8.83134e-10 -1.39273e-08 -9.67123e-06)
(-1.49118e-09 -1.39281e-08 -9.67123e-06)
(-5.10672e-09 -1.39163e-08 -9.67043e-06)
(-3.34993e-08 -1.37591e-08 -9.66859e-06)
(-2.23407e-07 -1.29314e-08 -9.74472e-06)
(-1.52691e-06 -1.08699e-08 -1.03564e-05)
(-1.3247e-05 -1.12678e-08 -6.20383e-06)
(1.32434e-05 -3.62616e-08 -6.20492e-06)
(1.52608e-06 -3.50044e-08 -1.03564e-05)
(2.22937e-07 -4.15833e-08 -9.74489e-06)
(3.33489e-08 -4.41878e-08 -9.66879e-06)
(5.08106e-09 -4.46724e-08 -9.67064e-06)
(1.49077e-09 -4.4706e-08 -9.67143e-06)
(8.84709e-10 -4.47029e-08 -9.67143e-06)
(6.18026e-10 -4.47051e-08 -9.67139e-06)
(4.33089e-10 -4.47084e-08 -9.67137e-06)
(2.98648e-10 -4.47109e-08 -9.67135e-06)
(2.02382e-10 -4.47125e-08 -9.67134e-06)
(1.33808e-10 -4.47136e-08 -9.67133e-06)
(8.4038e-11 -4.47142e-08 -9.67133e-06)
(4.61199e-11 -4.47146e-08 -9.67132e-06)
(1.46916e-11 -4.47148e-08 -9.67132e-06)
(-1.4675e-11 -4.47148e-08 -9.67132e-06)
(-4.61032e-11 -4.47147e-08 -9.67132e-06)
(-8.40208e-11 -4.47143e-08 -9.67133e-06)
(-1.33788e-10 -4.47136e-08 -9.67133e-06)
(-2.02354e-10 -4.47126e-08 -9.67134e-06)
(-2.98608e-10 -4.4711e-08 -9.67135e-06)
(-4.3303e-10 -4.47085e-08 -9.67137e-06)
(-6.17939e-10 -4.47051e-08 -9.67139e-06)
(-8.84588e-10 -4.47029e-08 -9.67143e-06)
(-1.49061e-09 -4.4706e-08 -9.67143e-06)
(-5.08088e-09 -4.46724e-08 -9.67064e-06)
(-3.33486e-08 -4.41878e-08 -9.66879e-06)
(-2.22937e-07 -4.15833e-08 -9.74489e-06)
(-1.52608e-06 -3.50043e-08 -1.03564e-05)
(-1.32434e-05 -3.62613e-08 -6.20492e-06)
(1.32354e-05 -6.91648e-08 -6.20738e-06)
(1.5242e-06 -6.68725e-08 -1.03563e-05)
(2.21922e-07 -7.92166e-08 -9.74527e-06)
(3.3033e-08 -8.3973e-08 -9.66924e-06)
(5.02818e-09 -8.48227e-08 -9.67109e-06)
(1.48986e-09 -8.48724e-08 -9.67189e-06)
(8.87721e-10 -8.48645e-08 -9.67188e-06)
(6.1993e-10 -8.4868e-08 -9.67185e-06)
(4.34355e-10 -8.48737e-08 -9.67182e-06)
(2.99571e-10 -8.4878e-08 -9.67181e-06)
(2.03047e-10 -8.48807e-08 -9.67179e-06)
(1.34264e-10 -8.48825e-08 -9.67178e-06)
(8.43291e-11 -8.48836e-08 -9.67178e-06)
(4.62811e-11 -8.48842e-08 -9.67178e-06)
(1.47439e-11 -8.48845e-08 -9.67178e-06)
(-1.47251e-11 -8.48845e-08 -9.67178e-06)
(-4.62626e-11 -8.48843e-08 -9.67178e-06)
(-8.4311e-11 -8.48836e-08 -9.67178e-06)
(-1.34244e-10 -8.48825e-08 -9.67178e-06)
(-2.0302e-10 -8.48808e-08 -9.67179e-06)
(-2.99534e-10 -8.4878e-08 -9.67181e-06)
(-4.34299e-10 -8.48738e-08 -9.67182e-06)
(-6.19849e-10 -8.48681e-08 -9.67185e-06)
(-8.87606e-10 -8.48645e-08 -9.67188e-06)
(-1.48971e-09 -8.48725e-08 -9.67189e-06)
(-5.02801e-09 -8.48227e-08 -9.67109e-06)
(-3.30328e-08 -8.3973e-08 -9.66924e-06)
(-2.21922e-07 -7.92166e-08 -9.74527e-06)
(-1.5242e-06 -6.68724e-08 -1.03563e-05)
(-1.32354e-05 -6.91645e-08 -6.20738e-06)
(1.32207e-05 -1.17161e-07 -6.21181e-06)
(1.52078e-06 -1.13597e-07 -1.03562e-05)
(2.2021e-07 -1.33998e-07 -9.74596e-06)
(3.25236e-08 -1.41565e-07 -9.67005e-06)
(4.94606e-09 -1.42841e-07 -9.6719e-06)
(1.48918e-09 -1.42896e-07 -9.67269e-06)
(8.92538e-10 -1.42878e-07 -9.67269e-06)
(6.22838e-10 -1.42883e-07 -9.67265e-06)
(4.36262e-10 -1.42891e-07 -9.67263e-06)
(3.00964e-10 -1.42897e-07 -9.67261e-06)
(2.0405e-10 -1.42901e-07 -9.6726e-06)
(1.3495e-10 -1.42904e-07 -9.67259e-06)
(8.47677e-11 -1.42905e-07 -9.67258e-06)
(4.6524e-11 -1.42906e-07 -9.67258e-06)
(1.48227e-11 -1.42907e-07 -9.67258e-06)
(-1.48003e-11 -1.42907e-07 -9.67258e-06)
(-4.65026e-11 -1.42906e-07 -9.67258e-06)
(-8.47481e-11 -1.42905e-07 -9.67258e-06)
(-1.3493e-10 -1.42904e-07 -9.67259e-06)
(-2.04025e-10 -1.42901e-07 -9.6726e-06)
(-3.0093e-10 -1.42897e-07 -9.67261e-06)
(-4.36212e-10 -1.42891e-07 -9.67263e-06)
(-6.22763e-10 -1.42883e-07 -9.67265e-06)
(-8.92432e-10 -1.42879e-07 -9.67269e-06)
(-1.48904e-09 -1.42896e-07 -9.67269e-06)
(-4.9459e-09 -1.42841e-07 -9.6719e-06)
(-3.25234e-08 -1.41565e-07 -9.67005e-06)
(-2.2021e-07 -1.33998e-07 -9.74596e-06)
(-1.52078e-06 -1.13597e-07 -1.03562e-05)
(-1.32207e-05 -1.17161e-07 -6.21181e-06)
(1.31952e-05 -1.90727e-07 -6.21928e-06)
(1.5149e-06 -1.85768e-07 -1.03558e-05)
(2.17568e-07 -2.17875e-07 -9.74703e-06)
(3.17785e-08 -2.29238e-07 -9.67132e-06)
(4.83154e-09 -2.31021e-07 -9.67317e-06)
(1.48971e-09 -2.31061e-07 -9.67396e-06)
(8.99545e-10 -2.31028e-07 -9.67396e-06)
(6.26793e-10 -2.31033e-07 -9.67392e-06)
(4.38812e-10 -2.31044e-07 -9.67389e-06)
(3.0283e-10 -2.31052e-07 -9.67388e-06)
(2.05394e-10 -2.31058e-07 -9.67386e-06)
(1.3587e-10 -2.31061e-07 -9.67386e-06)
(8.53543e-11 -2.31063e-07 -9.67385e-06)
(4.68487e-11 -2.31064e-07 -9.67385e-06)
(1.49282e-11 -2.31065e-07 -9.67385e-06)
(-1.49007e-11 -2.31065e-07 -9.67385e-06)
(-4.68233e-11 -2.31064e-07 -9.67385e-06)
(-8.53327e-11 -2.31063e-07 -9.67385e-06)
(-1.3585e-10 -2.31061e-07 -9.67386e-06)
(-2.05373e-10 -2.31058e-07 -9.67386e-06)
(-3.02801e-10 -2.31052e-07 -9.67388e-06)
(-4.3877e-10 -2.31044e-07 -9.67389e-06)
(-6.26728e-10 -2.31033e-07 -9.67392e-06)
(-8.9945e-10 -2.31028e-07 -9.67396e-06)
(-1.48959e-09 -2.31061e-07 -9.67396e-06)
(-4.8314e-09 -2.31021e-07 -9.67317e-06)
(-3.17783e-08 -2.29238e-07 -9.67132e-06)
(-2.17568e-07 -2.17875e-07 -9.74703e-06)
(-1.5149e-06 -1.85768e-07 -1.03558e-05)
(-1.31952e-05 -1.90726e-07 -6.21928e-06)
(1.31513e-05 -3.05904e-07 -6.23148e-06)
(1.50512e-06 -3.00012e-07 -1.03549e-05)
(2.13681e-07 -3.49226e-07 -9.74846e-06)
(3.07421e-08 -3.65744e-07 -9.67308e-06)
(4.68083e-09 -3.68128e-07 -9.67493e-06)
(1.49316e-09 -3.68122e-07 -9.67572e-06)
(9.09283e-10 -3.68064e-07 -9.67571e-06)
(6.31833e-10 -3.68069e-07 -9.67568e-06)
(4.41999e-10 -3.68084e-07 -9.67565e-06)
(3.05171e-10 -3.68095e-07 -9.67563e-06)
(2.07082e-10 -3.68101e-07 -9.67562e-06)
(1.37022e-10 -3.68106e-07 -9.67561e-06)
(8.60885e-11 -3.68108e-07 -9.6756e-06)
(4.7255e-11 -3.6811e-07 -9.6756e-06)
(1.50604e-11 -3.68111e-07 -9.6756e-06)
(-1.50259e-11 -3.68111e-07 -9.6756e-06)
(-4.72241e-11 -3.6811e-07 -9.6756e-06)
(-8.60642e-11 -3.68108e-07 -9.6756e-06)
(-1.37003e-10 -3.68106e-07 -9.67561e-06)
(-2.07065e-10 -3.68101e-07 -9.67562e-06)
(-3.0515e-10 -3.68095e-07 -9.67563e-06)
(-4.41966e-10 -3.68084e-07 -9.67565e-06)
(-6.31779e-10 -3.68069e-07 -9.67568e-06)
(-9.09201e-10 -3.68064e-07 -9.67571e-06)
(-1.49305e-09 -3.68122e-07 -9.67572e-06)
(-4.6807e-09 -3.68128e-07 -9.67493e-06)
(-3.0742e-08 -3.65744e-07 -9.67308e-06)
(-2.1368e-07 -3.49226e-07 -9.74846e-06)
(-1.50512e-06 -3.00012e-07 -1.03549e-05)
(-1.31513e-05 -3.05904e-07 -6.23148e-06)
(1.30765e-05 -4.87782e-07 -6.25107e-06)
(1.48932e-06 -4.83062e-07 -1.03525e-05)
(2.08159e-07 -5.56935e-07 -9.75004e-06)
(2.93421e-08 -5.80382e-07 -9.67518e-06)
(4.49016e-09 -5.83468e-07 -9.67703e-06)
(1.50225e-09 -5.83368e-07 -9.67782e-06)
(9.22407e-10 -5.8327e-07 -9.67781e-06)
(6.37941e-10 -5.83276e-07 -9.67777e-06)
(4.45791e-10 -5.83295e-07 -9.67774e-06)
(3.0798e-10 -5.83309e-07 -9.67773e-06)
(2.09109e-10 -5.83318e-07 -9.67771e-06)
(1.38402e-10 -5.83323e-07 -9.6777e-06)
(8.69665e-11 -5.83327e-07 -9.6777e-06)
(4.77405e-11 -5.83329e-07 -9.67769e-06)
(1.52184e-11 -5.8333e-07 -9.67769e-06)
(-1.51752e-11 -5.8333e-07 -9.67769e-06)
(-4.77028e-11 -5.83329e-07 -9.67769e-06)
(-8.69387e-11 -5.83327e-07 -9.6777e-06)
(-1.38384e-10 -5.83323e-07 -9.6777e-06)
(-2.09096e-10 -5.83318e-07 -9.67771e-06)
(-3.07967e-10 -5.83309e-07 -9.67773e-06)
(-4.45769e-10 -5.83295e-07 -9.67774e-06)
(-6.37901e-10 -5.83276e-07 -9.67777e-06)
(-9.22341e-10 -5.8327e-07 -9.67781e-06)
(-1.50216e-09 -5.83368e-07 -9.67782e-06)
(-4.49005e-09 -5.83469e-07 -9.67703e-06)
(-2.9342e-08 -5.80383e-07 -9.67518e-06)
(-2.08159e-07 -5.56935e-07 -9.75004e-06)
(-1.48932e-06 -4.83062e-07 -1.03525e-05)
(-1.30765e-05 -4.87781e-07 -6.25107e-06)
(1.29514e-05 -7.75899e-07 -6.28291e-06)
(1.46486e-06 -7.78182e-07 -1.0348e-05)
(2.00549e-07 -8.86671e-07 -9.75212e-06)
(2.74845e-08 -9.19267e-07 -9.6781e-06)
(4.25796e-09 -9.23154e-07 -9.67994e-06)
(1.52118e-09 -9.22884e-07 -9.68071e-06)
(9.3954e-10 -9.22727e-07 -9.6807e-06)
(6.45012e-10 -9.22734e-07 -9.68066e-06)
(4.50135e-10 -9.2276e-07 -9.68064e-06)
(3.11239e-10 -9.22778e-07 -9.68062e-06)
(2.11462e-10 -9.22788e-07 -9.6806e-06)
(1.4e-10 -9.22795e-07 -9.68059e-06)
(8.79808e-11 -9.228e-07 -9.68059e-06)
(4.83008e-11 -9.22803e-07 -9.68059e-06)
(1.54008e-11 -9.22804e-07 -9.68058e-06)
(-1.53473e-11 -9.22804e-07 -9.68058e-06)
(-4.8255e-11 -9.22803e-07 -9.68059e-06)
(-8.79489e-11 -9.228e-07 -9.68059e-06)
(-1.39983e-10 -9.22796e-07 -9.68059e-06)
(-2.11455e-10 -9.22789e-07 -9.6806e-06)
(-3.11237e-10 -9.22778e-07 -9.68062e-06)
(-4.50128e-10 -9.2276e-07 -9.68064e-06)
(-6.44988e-10 -9.22734e-07 -9.68066e-06)
(-9.39492e-10 -9.22727e-07 -9.6807e-06)
(-1.52111e-09 -9.22884e-07 -9.68071e-06)
(-4.25788e-09 -9.23154e-07 -9.67994e-06)
(-2.74844e-08 -9.19267e-07 -9.6781e-06)
(-2.00548e-07 -8.86671e-07 -9.75212e-06)
(-1.46486e-06 -7.78182e-07 -1.0348e-05)
(-1.29514e-05 -7.75899e-07 -6.28291e-06)
(1.27497e-05 -1.23259e-06 -6.33868e-06)
(1.42918e-06 -1.25481e-06 -1.03456e-05)
(1.90335e-07 -1.41022e-06 -9.76018e-06)
(2.50572e-08 -1.45469e-06 -9.68752e-06)
(3.99012e-09 -1.45947e-06 -9.68935e-06)
(1.55536e-09 -1.45891e-06 -9.69011e-06)
(9.60867e-10 -1.45867e-06 -9.69009e-06)
(6.52793e-10 -1.45868e-06 -9.69005e-06)
(4.54963e-10 -1.45872e-06 -9.69002e-06)
(3.14926e-10 -1.45874e-06 -9.69e-06)
(2.14122e-10 -1.45875e-06 -9.68999e-06)
(1.418e-10 -1.45876e-06 -9.68998e-06)
(8.91205e-11 -1.45877e-06 -9.68997e-06)
(4.89295e-11 -1.45877e-06 -9.68997e-06)
(1.56051e-11 -1.45877e-06 -9.68997e-06)
(-1.55405e-11 -1.45877e-06 -9.68997e-06)
(-4.88748e-11 -1.45877e-06 -9.68997e-06)
(-8.90841e-11 -1.45877e-06 -9.68997e-06)
(-1.41784e-10 -1.45876e-06 -9.68998e-06)
(-2.14122e-10 -1.45875e-06 -9.68999e-06)
(-3.14936e-10 -1.45874e-06 -9.69e-06)
(-4.54971e-10 -1.45872e-06 -9.69002e-06)
(-6.52787e-10 -1.45868e-06 -9.69005e-06)
(-9.60837e-10 -1.45867e-06 -9.69009e-06)
(-1.55531e-09 -1.45891e-06 -9.69011e-06)
(-3.99007e-09 -1.45947e-06 -9.68935e-06)
(-2.50571e-08 -1.45469e-06 -9.68752e-06)
(-1.90335e-07 -1.41022e-06 -9.76018e-06)
(-1.42917e-06 -1.25481e-06 -1.03456e-05)
(-1.27497e-05 -1.23259e-06 -6.33868e-06)
(1.24448e-05 -1.95566e-06 -6.44926e-06)
(1.38121e-06 -2.02183e-06 -1.03679e-05)
(1.76991e-07 -2.23855e-06 -9.79897e-06)
(2.19785e-08 -2.29835e-06 -9.72866e-06)
(3.71021e-09 -2.30405e-06 -9.73049e-06)
(1.6094e-09 -2.30304e-06 -9.73121e-06)
(9.85373e-10 -2.30268e-06 -9.73119e-06)
(6.6092e-10 -2.3027e-06 -9.73114e-06)
(4.60265e-10 -2.30275e-06 -9.73111e-06)
(3.19051e-10 -2.30278e-06 -9.73109e-06)
(2.17087e-10 -2.30279e-06 -9.73108e-06)
(1.43797e-10 -2.30281e-06 -9.73107e-06)
(9.03809e-11 -2.30281e-06 -9.73106e-06)
(4.96239e-11 -2.30282e-06 -9.73106e-06)
(1.58307e-11 -2.30282e-06 -9.73106e-06)
(-1.57537e-11 -2.30282e-06 -9.73106e-06)