/*--------------------------------*- C++ -*----------------------------------*\
| =========                 |                                                 |
| \\      /  F ield         | OpenFOAM: The Open Source CFD Toolbox           |
|  \\    /   O peration     | Version:  2106                                  |
|   \\  /    A nd           | Website:  www.openfoam.com                      |
|    \\/     M anipulation  |                                                 |
\*---------------------------------------------------------------------------*/
FoamFile
{
    version     2.0;
    format      ascii;
    arch        "LSB;label=32;scalar=64";
    class       volSymmTensorField;
    location    "141";
    object      epsilon;
}
// * * * * * * * * * * * * * * * * * * * * * * * * * * * * * * * * * * * * * //

dimensions      [0 0 0 0 0 0 0];

internalField   nonuniform List<symmTensor> 
9000
(
(-0.0857612 -0.000287495 0.0483339 -0.147575 0.0617647 -0.0243415)
(-0.0168255 0.000531314 0.00941361 -0.156736 0.0653129 -0.0691356)
(-0.00193715 0.00033686 0.00256617 -0.166702 0.0693639 -0.0587887)
(-0.000320792 5.13575e-05 0.000439119 -0.168331 0.070255 -0.0566462)
(-5.47374e-05 -8.29377e-07 4.58397e-05 -0.168428 0.0702918 -0.0566328)
(-5.83695e-06 -1.48025e-06 1.11254e-05 -0.168415 0.0702704 -0.056689)
(-5.66885e-07 -1.28441e-07 1.09069e-05 -0.168413 0.0702668 -0.0566954)
(-5.86051e-07 7.24556e-08 8.94156e-06 -0.168415 0.0702678 -0.0566913)
(-5.64814e-07 4.4448e-08 6.43124e-06 -0.168417 0.0702688 -0.0566878)
(-4.29441e-07 2.37571e-08 4.45403e-06 -0.168418 0.0702695 -0.0566855)
(-3.08796e-07 1.51446e-08 3.03098e-06 -0.168419 0.0702699 -0.056684)
(-2.22715e-07 1.01099e-08 2.01136e-06 -0.168419 0.0702701 -0.0566829)
(-1.65591e-07 6.42038e-09 1.26599e-06 -0.168419 0.0702703 -0.0566823)
(-1.31097e-07 3.5425e-09 6.95388e-07 -0.16842 0.0702704 -0.0566818)
(-1.14918e-07 1.12532e-09 2.21304e-07 -0.16842 0.0702705 -0.0566817)
(-1.14893e-07 -1.14456e-09 -2.21935e-07 -0.16842 0.0702705 -0.0566817)
(-1.31027e-07 -3.56248e-09 -6.95797e-07 -0.16842 0.0702704 -0.0566818)
(-1.65485e-07 -6.44323e-09 -1.26599e-06 -0.168419 0.0702703 -0.0566823)
(-2.22583e-07 -1.01413e-08 -2.01082e-06 -0.168419 0.0702701 -0.0566829)
(-3.08644e-07 -1.51932e-08 -3.02979e-06 -0.168419 0.0702699 -0.056684)
(-4.29279e-07 -2.38304e-08 -4.45212e-06 -0.168418 0.0702695 -0.0566855)
(-5.64659e-07 -4.45416e-08 -6.4286e-06 -0.168417 0.0702688 -0.0566878)
(-5.85922e-07 -7.2545e-08 -8.93827e-06 -0.168415 0.0702678 -0.0566913)
(-5.66796e-07 1.28387e-07 -1.09031e-05 -0.168413 0.0702668 -0.0566953)
(-5.8369e-06 1.48022e-06 -1.11214e-05 -0.168415 0.0702704 -0.056689)
(-5.47375e-05 8.29326e-07 -4.58356e-05 -0.168428 0.0702918 -0.0566328)
(-0.000320792 -5.13576e-05 -0.000439115 -0.168331 0.070255 -0.0566461)
(-0.00193715 -0.000336859 -0.00256617 -0.166702 0.0693639 -0.0587887)
(-0.0168255 -0.000531314 -0.0094136 -0.156736 0.0653129 -0.0691356)
(-0.0857612 0.000287495 -0.0483339 -0.147575 0.0617647 -0.0243416)
(-0.0723939 -3.60202e-05 0.0466592 -0.0984985 0.0684241 -0.128773)
(-0.0164451 0.000677654 0.0080557 -0.103394 0.0719505 -0.174923)
(-0.00181169 0.000433273 0.00153514 -0.10945 0.0764613 -0.171198)
(-0.000207421 7.11805e-05 0.000213328 -0.110638 0.07761 -0.170488)
(-2.71166e-05 -2.67358e-06 3.78404e-05 -0.110676 0.0776577 -0.170529)
(-4.57436e-06 -2.84781e-06 1.69088e-05 -0.110652 0.0776231 -0.17055)
(-1.32711e-06 -3.3926e-07 1.15512e-05 -0.110649 0.0776164 -0.170552)
(-7.37226e-07 5.30937e-08 8.35005e-06 -0.110651 0.0776174 -0.17055)
(-5.38658e-07 2.01996e-08 5.94187e-06 -0.110652 0.0776186 -0.170549)
(-3.99685e-07 -9.84684e-10 4.13388e-06 -0.110653 0.0776192 -0.170548)
(-2.8984e-07 -3.08524e-09 2.81755e-06 -0.110653 0.0776196 -0.170547)
(-2.09698e-07 -2.05432e-09 1.86967e-06 -0.110654 0.0776199 -0.170547)
(-1.55916e-07 -1.21857e-09 1.17661e-06 -0.110654 0.0776201 -0.170547)
(-1.23406e-07 -6.38438e-10 6.46225e-07 -0.110654 0.0776202 -0.170546)
(-1.08165e-07 -1.80837e-10 2.05628e-07 -0.110654 0.0776202 -0.170546)
(-1.08143e-07 2.34209e-10 -2.06284e-07 -0.110654 0.0776202 -0.170546)
(-1.23343e-07 6.77911e-10 -6.46682e-07 -0.110654 0.0776202 -0.170546)
(-1.55823e-07 1.23292e-09 -1.17671e-06 -0.110654 0.0776201 -0.170547)
(-2.09588e-07 2.0374e-09 -1.86931e-06 -0.110654 0.0776199 -0.170547)
(-2.89723e-07 3.03654e-09 -2.81668e-06 -0.110653 0.0776196 -0.170547)
(-3.99562e-07 9.09935e-10 -4.13249e-06 -0.110653 0.0776192 -0.170548)
(-5.3853e-07 -2.02893e-08 -5.93993e-06 -0.110652 0.0776186 -0.170549)
(-7.37098e-07 -5.3182e-08 -8.34756e-06 -0.110651 0.0776174 -0.17055)
(-1.327e-06 3.39185e-07 -1.15481e-05 -0.110649 0.0776164 -0.170552)
(-4.57432e-06 2.84773e-06 -1.69055e-05 -0.110652 0.0776231 -0.17055)
(-2.71167e-05 2.67342e-06 -3.7837e-05 -0.110676 0.0776577 -0.170529)
(-0.000207421 -7.11807e-05 -0.000213325 -0.110638 0.07761 -0.170488)
(-0.00181168 -0.000433273 -0.00153513 -0.10945 0.0764613 -0.171198)
(-0.0164451 -0.000677655 -0.0080557 -0.103394 0.0719505 -0.174923)
(-0.0723939 3.60202e-05 -0.0466592 -0.0984985 0.0684241 -0.128773)
(-0.076303 0.00115974 0.0468972 -0.0577716 0.0581712 -0.153336)
(-0.0165647 0.000871738 0.00790966 -0.0603342 0.060845 -0.202002)
(-0.0018141 0.000520352 0.00136087 -0.0635047 0.0650156 -0.199954)
(-0.000188468 9.71123e-05 0.000152963 -0.0642364 0.0661044 -0.199611)
(-1.83939e-05 1.65358e-07 3.32604e-05 -0.0642467 0.0661625 -0.199669)
(-3.76571e-06 -3.24918e-06 1.85013e-05 -0.064224 0.0661312 -0.199683)
(-1.59957e-06 -4.87262e-07 1.17427e-05 -0.0642209 0.0661244 -0.199683)
(-8.11978e-07 5.99192e-08 8.07461e-06 -0.0642218 0.0661254 -0.199682)
(-5.2758e-07 3.78464e-08 5.69859e-06 -0.0642225 0.0661265 -0.199681)
(-3.83074e-07 9.15378e-09 3.9681e-06 -0.0642229 0.0661271 -0.19968)
(-2.78353e-07 2.94961e-09 2.70613e-06 -0.0642232 0.0661275 -0.19968)
(-2.01682e-07 1.87451e-09 1.79586e-06 -0.0642234 0.0661278 -0.19968)
(-1.49978e-07 1.28983e-09 1.13018e-06 -0.0642235 0.0661279 -0.199679)
(-1.18708e-07 7.66037e-10 6.20764e-07 -0.0642236 0.066128 -0.199679)
(-1.04052e-07 2.8453e-10 1.97556e-07 -0.0642236 0.0661281 -0.199679)
(-1.04033e-07 -1.89066e-10 -1.98119e-07 -0.0642236 0.0661281 -0.199679)
(-1.18653e-07 -6.89895e-10 -6.21157e-07 -0.0642236 0.066128 -0.199679)
(-1.49899e-07 -1.24686e-09 -1.13027e-06 -0.0642235 0.0661279 -0.199679)
(-2.0159e-07 -1.86743e-09 -1.79557e-06 -0.0642234 0.0661278 -0.19968)
(-2.78256e-07 -2.97053e-09 -2.70542e-06 -0.0642232 0.0661275 -0.19968)
(-3.82972e-07 -9.18602e-09 -3.96694e-06 -0.0642229 0.0661271 -0.19968)
(-5.27466e-07 -3.78762e-08 -5.69696e-06 -0.0642225 0.0661265 -0.199681)
(-8.11852e-07 -5.9943e-08 -8.07247e-06 -0.0642218 0.0661254 -0.199682)
(-1.59946e-06 4.87235e-07 -1.174e-05 -0.0642209 0.0661244 -0.199683)
(-3.76568e-06 3.24914e-06 -1.84982e-05 -0.064224 0.0661312 -0.199683)
(-1.83939e-05 -1.65424e-07 -3.32575e-05 -0.0642468 0.0661625 -0.199669)
(-0.000188467 -9.71124e-05 -0.00015296 -0.0642364 0.0661044 -0.199611)
(-0.00181409 -0.000520352 -0.00136087 -0.0635047 0.0650156 -0.199954)
(-0.0165647 -0.000871738 -0.00790965 -0.0603342 0.0608451 -0.202002)
(-0.076303 -0.00115974 -0.0468972 -0.0577716 0.0581711 -0.153336)
(-0.081908 0.00180955 0.048507 -0.0352511 0.0410707 -0.154211)
(-0.0171204 0.00087643 0.00818556 -0.0373172 0.0424117 -0.205447)
(-0.00187554 0.000495486 0.00148072 -0.0392335 0.0457619 -0.20354)
(-0.000207858 0.000101815 0.000162913 -0.0397232 0.0466396 -0.203227)
(-1.98839e-05 3.14537e-06 3.17879e-05 -0.039732 0.0466981 -0.20329)
(-3.52183e-06 -2.89464e-06 1.83082e-05 -0.0397136 0.0466757 -0.203303)
(-1.60683e-06 -5.42544e-07 1.16656e-05 -0.0397106 0.0466702 -0.203303)
(-8.2971e-07 4.10508e-08 7.924e-06 -0.0397112 0.0466708 -0.203303)
(-5.22445e-07 3.98957e-08 5.56384e-06 -0.0397117 0.0466717 -0.203302)
(-3.74196e-07 1.23361e-08 3.87087e-06 -0.039712 0.0466722 -0.203301)
(-2.71426e-07 4.77625e-09 2.63961e-06 -0.0397121 0.0466725 -0.203301)
(-1.96676e-07 2.91302e-09 1.75172e-06 -0.0397122 0.0466727 -0.203301)
(-1.46262e-07 1.90548e-09 1.10246e-06 -0.0397123 0.0466729 -0.203301)
(-1.15775e-07 1.10069e-09 6.05598e-07 -0.0397124 0.046673 -0.2033)
(-1.01493e-07 3.95557e-10 1.9278e-07 -0.0397124 0.046673 -0.2033)
(-1.01476e-07 -2.85794e-10 -1.93207e-07 -0.0397124 0.046673 -0.2033)
(-1.1573e-07 -1.0118e-09 -6.05885e-07 -0.0397124 0.046673 -0.2033)
(-1.46196e-07 -1.85175e-09 -1.1025e-06 -0.0397123 0.0466729 -0.203301)
(-1.96599e-07 -2.89541e-09 -1.75144e-06 -0.0397122 0.0466727 -0.203301)
(-2.71342e-07 -4.78392e-09 -2.63897e-06 -0.0397121 0.0466725 -0.203301)
(-3.74104e-07 -1.23495e-08 -3.86984e-06 -0.039712 0.0466722 -0.203301)
(-5.22338e-07 -3.99012e-08 -5.56238e-06 -0.0397117 0.0466717 -0.203302)
(-8.29588e-07 -4.10497e-08 -7.92203e-06 -0.0397112 0.0466708 -0.203303)
(-1.60672e-06 5.42538e-07 -1.16631e-05 -0.0397106 0.0466702 -0.203303)
(-3.52179e-06 2.89462e-06 -1.83053e-05 -0.0397136 0.0466757 -0.203303)
(-1.98839e-05 -3.14537e-06 -3.17851e-05 -0.039732 0.0466981 -0.20329)
(-0.000207858 -0.000101815 -0.000162911 -0.0397232 0.0466396 -0.203227)
(-0.00187554 -0.000495486 -0.00148072 -0.0392335 0.0457619 -0.20354)
(-0.0171204 -0.00087643 -0.00818555 -0.0373172 0.0424117 -0.205447)
(-0.081908 -0.00180955 -0.048507 -0.0352511 0.0410707 -0.154211)
(-0.0860946 0.00177742 0.0505053 -0.022117 0.0264854 -0.152204)
(-0.0178042 0.000765787 0.00858613 -0.0236389 0.0268677 -0.205807)
(-0.00195794 0.000412598 0.00165189 -0.0250002 0.0293939 -0.203807)
(-0.000235285 9.09164e-05 0.000193333 -0.0253518 0.0300588 -0.203475)
(-2.50384e-05 4.9007e-06 3.24426e-05 -0.0253638 0.030112 -0.203542)
(-3.69518e-06 -2.20749e-06 1.75988e-05 -0.0253505 0.0300978 -0.203556)
(-1.51789e-06 -5.14976e-07 1.14541e-05 -0.025348 0.0300938 -0.203557)
(-8.15165e-07 1.20245e-08 7.80901e-06 -0.0253483 0.0300942 -0.203556)
(-5.18079e-07 2.94477e-08 5.46943e-06 -0.0253486 0.0300948 -0.203555)
(-3.68841e-07 8.49725e-09 3.79975e-06 -0.0253488 0.0300952 -0.203555)
(-2.66706e-07 2.29487e-09 2.59e-06 -0.0253489 0.0300954 -0.203554)
(-1.931e-07 1.11455e-09 1.71866e-06 -0.025349 0.0300956 -0.203554)
(-1.43584e-07 7.16318e-10 1.0817e-06 -0.0253491 0.0300957 -0.203554)
(-1.13664e-07 4.32471e-10 5.94247e-07 -0.0253491 0.0300958 -0.203554)
(-9.96516e-08 1.78536e-10 1.8922e-07 -0.0253491 0.0300958 -0.203554)
(-9.96386e-08 -7.56896e-11 -1.89507e-07 -0.0253491 0.0300958 -0.203554)
(-1.13627e-07 -3.49229e-10 -5.94423e-07 -0.0253491 0.0300958 -0.203554)
(-1.43531e-07 -6.65873e-10 -1.08167e-06 -0.0253491 0.0300957 -0.203554)
(-1.93036e-07 -1.09748e-09 -1.71838e-06 -0.025349 0.0300956 -0.203554)
(-2.66632e-07 -2.30135e-09 -2.58941e-06 -0.0253489 0.0300954 -0.203554)
(-3.68755e-07 -8.51022e-09 -3.79881e-06 -0.0253488 0.0300952 -0.203555)
(-5.17976e-07 -2.94554e-08 -5.46807e-06 -0.0253486 0.0300948 -0.203555)
(-8.15047e-07 -1.20274e-08 -7.80717e-06 -0.0253483 0.0300942 -0.203556)
(-1.51779e-06 5.14968e-07 -1.14517e-05 -0.025348 0.0300938 -0.203557)
(-3.69513e-06 2.20749e-06 -1.75961e-05 -0.0253505 0.0300978 -0.203556)
(-2.50383e-05 -4.90066e-06 -3.24397e-05 -0.0253638 0.030112 -0.203541)
(-0.000235285 -9.09164e-05 -0.00019333 -0.0253518 0.0300588 -0.203475)
(-0.00195794 -0.000412598 -0.00165189 -0.0250002 0.0293939 -0.203807)
(-0.0178042 -0.000765787 -0.00858613 -0.0236389 0.0268677 -0.205807)
(-0.0860946 -0.00177742 -0.0505053 -0.022117 0.0264854 -0.152204)
(-0.088784 0.0013996 0.0522559 -0.0139915 0.0165316 -0.151178)
(-0.0184017 0.000607814 0.00898594 -0.0149249 0.016435 -0.206627)
(-0.00203885 0.00031991 0.00180173 -0.015973 0.0182797 -0.204566)
(-0.00025992 7.41882e-05 0.000224284 -0.0162376 0.018774 -0.204225)
(-3.0553e-05 5.45203e-06 3.42082e-05 -0.0162513 0.0188198 -0.204296)
(-4.08706e-06 -1.50252e-06 1.69093e-05 -0.0162424 0.0188115 -0.204311)
(-1.4227e-06 -4.38426e-07 1.12001e-05 -0.0162404 0.0188088 -0.204312)
(-7.8767e-07 -1.20852e-08 7.70317e-06 -0.0162406 0.018809 -0.204311)
(-5.12834e-07 1.61256e-08 5.39131e-06 -0.0162408 0.0188095 -0.20431)
(-3.64834e-07 2.74881e-09 3.74014e-06 -0.016241 0.0188098 -0.20431)
(-2.6298e-07 -1.22577e-09 2.54784e-06 -0.016241 0.01881 -0.20431)
(-1.90168e-07 -1.324e-09 1.69041e-06 -0.0162411 0.0188101 -0.204309)
(-1.41363e-07 -8.75764e-10 1.06392e-06 -0.0162411 0.0188102 -0.204309)
(-1.11907e-07 -4.61312e-10 5.84528e-07 -0.0162411 0.0188102 -0.204309)
(-9.81198e-08 -1.14715e-10 1.86174e-07 -0.0162412 0.0188102 -0.204309)
(-9.81099e-08 1.99424e-10 -1.86335e-07 -0.0162412 0.0188102 -0.204309)
(-1.1188e-07 5.29436e-10 -5.84605e-07 -0.0162411 0.0188102 -0.204309)
(-1.41321e-07 9.16173e-10 -1.06385e-06 -0.0162411 0.0188102 -0.204309)
(-1.90114e-07 1.33612e-09 -1.69013e-06 -0.0162411 0.0188101 -0.204309)
(-2.62914e-07 1.21681e-09 -2.5473e-06 -0.016241 0.01881 -0.20431)
(-3.64752e-07 -2.76629e-09 -3.73928e-06 -0.016241 0.0188098 -0.20431)
(-5.12735e-07 -1.61423e-08 -5.39005e-06 -0.0162408 0.0188095 -0.20431)
(-7.87556e-07 1.20719e-08 -7.70145e-06 -0.0162406 0.018809 -0.204311)
(-1.42259e-06 4.38414e-07 -1.11979e-05 -0.0162404 0.0188088 -0.204312)
(-4.08699e-06 1.50252e-06 -1.69067e-05 -0.0162424 0.0188115 -0.204311)
(-3.0553e-05 -5.45198e-06 -3.42053e-05 -0.0162513 0.0188198 -0.204296)
(-0.00025992 -7.41882e-05 -0.00022428 -0.0162376 0.018774 -0.204225)
(-0.00203885 -0.00031991 -0.00180173 -0.015973 0.0182797 -0.204566)
(-0.0184017 -0.000607814 -0.00898593 -0.0149249 0.016435 -0.206627)
(-0.088784 -0.0013996 -0.0522559 -0.0139915 0.0165316 -0.151178)
(-0.0904455 0.000966815 0.0535434 -0.00884824 0.0102806 -0.150898)
(-0.018839 0.00044691 0.00932409 -0.00932735 0.0100243 -0.207623)
(-0.00210617 0.000238256 0.00191879 -0.0101391 0.0113374 -0.20554)
(-0.000279516 5.75857e-05 0.000250007 -0.0103431 0.0117019 -0.205202)
(-3.52523e-05 5.21619e-06 3.63314e-05 -0.0103568 0.0117401 -0.205276)
(-4.54371e-06 -9.28657e-07 1.63984e-05 -0.0103512 0.0117357 -0.205292)
(-1.35381e-06 -3.45325e-07 1.09566e-05 -0.0103496 0.0117339 -0.205293)
(-7.58853e-07 -2.61952e-08 7.60304e-06 -0.0103497 0.0117341 -0.205292)
(-5.06821e-07 5.19599e-09 5.32245e-06 -0.0103499 0.0117344 -0.205292)
(-3.6131e-07 -1.97956e-09 3.68783e-06 -0.01035 0.0117347 -0.205291)
(-2.59763e-07 -3.95826e-09 2.51055e-06 -0.01035 0.0117348 -0.205291)
(-1.87586e-07 -3.18737e-09 1.66531e-06 -0.0103501 0.0117349 -0.205291)
(-1.39387e-07 -2.09577e-09 1.04809e-06 -0.0103501 0.011735 -0.205291)
(-1.10339e-07 -1.15041e-09 5.7586e-07 -0.0103501 0.011735 -0.205291)
(-9.67491e-08 -3.44273e-10 1.83453e-07 -0.0103501 0.011735 -0.205291)
(-9.67419e-08 4.06528e-10 -1.83509e-07 -0.0103501 0.011735 -0.205291)
(-1.10318e-07 1.19999e-09 -5.75854e-07 -0.0103501 0.011735 -0.205291)
(-1.39356e-07 2.12416e-09 -1.04797e-06 -0.0103501 0.011735 -0.205291)
(-1.87543e-07 3.19409e-09 -1.66503e-06 -0.0103501 0.0117349 -0.205291)
(-2.59704e-07 3.94773e-09 -2.51005e-06 -0.01035 0.0117348 -0.205291)
(-3.61233e-07 1.95974e-09 -3.68704e-06 -0.01035 0.0117347 -0.205291)
(-5.06724e-07 -5.21853e-09 -5.32128e-06 -0.0103499 0.0117344 -0.205292)
(-7.5874e-07 2.6175e-08 -7.60142e-06 -0.0103497 0.0117341 -0.205292)
(-1.3537e-06 3.4531e-07 -1.09545e-05 -0.0103496 0.0117339 -0.205293)
(-4.54362e-06 9.28658e-07 -1.63959e-05 -0.0103512 0.0117357 -0.205292)
(-3.52522e-05 -5.21616e-06 -3.63285e-05 -0.0103568 0.0117401 -0.205276)
(-0.000279516 -5.75857e-05 -0.000250004 -0.0103431 0.0117019 -0.205202)
(-0.00210617 -0.000238256 -0.00191879 -0.0101391 0.0113374 -0.20554)
(-0.018839 -0.00044691 -0.00932409 -0.00932735 0.0100243 -0.207623)
(-0.0904455 -0.000966815 -0.0535434 -0.00884824 0.0102806 -0.150898)
(-0.0914684 0.000614804 0.054396 -0.00558609 0.00642662 -0.150871)
(-0.0191263 0.000308642 0.00957927 -0.00578812 0.00616614 -0.208417)
(-0.00215607 0.000172655 0.00200691 -0.00639962 0.00707789 -0.206332)
(-0.000294435 4.34315e-05 0.000270012 -0.00655735 0.00734362 -0.205999)
(-3.89447e-05 4.58781e-06 3.83806e-05 -0.00656999 0.00737476 -0.206077)
(-4.97749e-06 -5.19558e-07 1.60678e-05 -0.00656658 0.0073727 -0.206094)
(-1.31421e-06 -2.56836e-07 1.07475e-05 -0.00656551 0.00737154 -0.206094)
(-7.34096e-07 -3.13687e-08 7.51109e-06 -0.00656554 0.00737167 -0.206094)
(-5.00669e-07 -1.95121e-09 5.26131e-06 -0.00656565 0.00737194 -0.206093)
(-3.58043e-07 -4.89219e-09 3.64183e-06 -0.00656572 0.00737212 -0.206093)
(-2.56911e-07 -5.4604e-09 2.47763e-06 -0.00656576 0.00737224 -0.206092)
(-1.85283e-07 -4.19006e-09 1.64305e-06 -0.00656579 0.00737232 -0.206092)
(-1.3761e-07 -2.75992e-09 1.03402e-06 -0.0065658 0.00737237 -0.206092)
(-1.08921e-07 -1.53144e-09 5.68142e-07 -0.00656581 0.00737239 -0.206092)
(-9.5508e-08 -4.75633e-10 1.81025e-07 -0.00656582 0.00737241 -0.206092)
(-9.55029e-08 5.14846e-10 -1.80998e-07 -0.00656582 0.00737241 -0.206092)
(-1.08906e-07 1.56222e-09 -5.6807e-07 -0.00656581 0.00737239 -0.206092)
(-1.37586e-07 2.77665e-09 -1.03386e-06 -0.0065658 0.00737236 -0.206092)
(-1.85247e-07 4.19259e-09 -1.64277e-06 -0.00656579 0.00737232 -0.206092)
(-2.56859e-07 5.45075e-09 -2.47716e-06 -0.00656576 0.00737224 -0.206092)
(-3.5797e-07 4.87427e-09 -3.64111e-06 -0.00656572 0.00737212 -0.206093)
(-5.00575e-07 1.92889e-09 -5.26022e-06 -0.00656565 0.00737194 -0.206093)
(-7.33985e-07 3.1348e-08 -7.50956e-06 -0.00656554 0.00737167 -0.206094)
(-1.31409e-06 2.56823e-07 -1.07454e-05 -0.00656551 0.00737154 -0.206094)
(-4.9774e-06 5.19558e-07 -1.60653e-05 -0.00656658 0.0073727 -0.206094)
(-3.89446e-05 -4.58779e-06 -3.83777e-05 -0.00656999 0.00737476 -0.206077)
(-0.000294435 -4.34315e-05 -0.000270009 -0.00655735 0.00734362 -0.205999)
(-0.00215607 -0.000172655 -0.0020069 -0.00639962 0.0070779 -0.206332)
(-0.0191263 -0.000308642 -0.00957926 -0.00578812 0.00616615 -0.208417)
(-0.0914684 -0.000614804 -0.054396 -0.00558609 0.00642662 -0.150871)
(-0.0920993 0.000371422 0.0549249 -0.00352496 0.00403371 -0.150893)
(-0.0193025 0.000202822 0.00975606 -0.00358628 0.00382441 -0.208941)
(-0.00218997 0.000122237 0.00207175 -0.00403084 0.00444255 -0.206864)
(-0.000305502 3.21164e-05 0.000285211 -0.00415142 0.00463318 -0.206537)
(-4.17595e-05 3.8251e-06 4.01676e-05 -0.0041627 0.00465794 -0.206617)
(-5.35153e-06 -2.53985e-07 1.58721e-05 -0.00416072 0.00465725 -0.206634)
(-1.29642e-06 -1.82873e-07 1.05789e-05 -0.00415998 0.00465655 -0.206635)
(-7.14907e-07 -3.06044e-08 7.42992e-06 -0.00415999 0.00465667 -0.206635)
(-4.94945e-07 -5.74663e-09 5.20779e-06 -0.00416007 0.00465688 -0.206634)
(-3.55043e-07 -6.184e-09 3.60194e-06 -0.00416013 0.00465702 -0.206634)
(-2.54402e-07 -5.91057e-09 2.44901e-06 -0.00416016 0.00465712 -0.206633)
(-1.83256e-07 -4.46086e-09 1.62362e-06 -0.00416018 0.00465718 -0.206633)
(-1.36037e-07 -2.94851e-09 1.02171e-06 -0.00416019 0.00465722 -0.206633)
(-1.0766e-07 -1.64725e-09 5.6138e-07 -0.0041602 0.00465724 -0.206633)
(-9.44019e-08 -5.21565e-10 1.78893e-07 -0.0041602 0.00465725 -0.206633)
(-9.43985e-08 5.39201e-10 -1.78805e-07 -0.0041602 0.00465725 -0.206633)
(-1.0765e-07 1.66065e-09 -5.61261e-07 -0.0041602 0.00465724 -0.206633)
(-1.36019e-07 2.95491e-09 -1.02153e-06 -0.00416019 0.00465722 -0.206633)
(-1.83226e-07 4.46061e-09 -1.62335e-06 -0.00416018 0.00465718 -0.206633)
(-2.54355e-07 5.90379e-09 -2.44857e-06 -0.00416016 0.00465712 -0.206633)
(-3.54975e-07 6.17127e-09 -3.60126e-06 -0.00416013 0.00465702 -0.206634)
(-4.94854e-07 5.72917e-09 -5.20677e-06 -0.00416007 0.00465688 -0.206634)
(-7.14797e-07 3.0588e-08 -7.42847e-06 -0.00415999 0.00465667 -0.206635)
(-1.2963e-06 1.82864e-07 -1.05769e-05 -0.00415998 0.00465655 -0.206635)
(-5.35142e-06 2.53986e-07 -1.58696e-05 -0.00416072 0.00465725 -0.206634)
(-4.17594e-05 -3.82509e-06 -4.01647e-05 -0.0041627 0.00465795 -0.206617)
(-0.000305502 -3.21163e-05 -0.000285207 -0.00415142 0.00463318 -0.206537)
(-0.00218997 -0.000122237 -0.00207175 -0.00403084 0.00444255 -0.206864)
(-0.0193025 -0.000202822 -0.00975605 -0.00358628 0.00382441 -0.208941)
(-0.0920993 -0.000371422 -0.0549249 -0.00352496 0.00403372 -0.150893)
(-0.0924882 0.00021811 0.0552409 -0.00222791 0.00253142 -0.150913)
(-0.0194064 0.000128401 0.00987106 -0.0022297 0.00238097 -0.209263)
(-0.00221156 8.45851e-05 0.00211834 -0.00254295 0.00279118 -0.207196)
(-0.000313499 2.33135e-05 0.000296612 -0.00263358 0.00292527 -0.206874)
(-4.38732e-05 3.06372e-06 4.1641e-05 -0.00264336 0.00294445 -0.206956)
(-5.65724e-06 -9.52487e-08 1.57643e-05 -0.00264231 0.00294451 -0.206973)
(-1.29195e-06 -1.25716e-07 1.04483e-05 -0.00264182 0.00294412 -0.206974)
(-7.00908e-07 -2.6677e-08 7.36102e-06 -0.00264182 0.00294422 -0.206974)
(-4.89989e-07 -7.12444e-09 5.16212e-06 -0.00264188 0.00294438 -0.206973)
(-3.52385e-07 -6.31212e-09 3.5681e-06 -0.00264193 0.0029445 -0.206973)
(-2.52246e-07 -5.63168e-09 2.4247e-06 -0.00264195 0.00294457 -0.206972)
(-1.81518e-07 -4.22364e-09 1.60708e-06 -0.00264197 0.00294462 -0.206972)
(-1.34681e-07 -2.80357e-09 1.0112e-06 -0.00264198 0.00294465 -0.206972)
(-1.0657e-07 -1.57548e-09 5.55597e-07 -0.00264198 0.00294467 -0.206972)
(-9.34432e-08 -5.06356e-10 1.77064e-07 -0.00264199 0.00294468 -0.206972)
(-9.34409e-08 5.04932e-10 -1.76935e-07 -0.00264199 0.00294468 -0.206972)
(-1.06563e-07 1.5737e-09 -5.55446e-07 -0.00264198 0.00294467 -0.206972)
(-1.34667e-07 2.80134e-09 -1.011e-06 -0.00264198 0.00294465 -0.206972)
(-1.81493e-07 4.2219e-09 -1.60681e-06 -0.00264197 0.00294462 -0.206972)
(-2.52203e-07 5.62904e-09 -2.42429e-06 -0.00264195 0.00294457 -0.206972)
(-3.52321e-07 6.30647e-09 -3.56746e-06 -0.00264193 0.0029445 -0.206973)
(-4.89901e-07 7.11453e-09 -5.16115e-06 -0.00264188 0.00294438 -0.206973)
(-7.00799e-07 2.66674e-08 -7.35963e-06 -0.00264182 0.00294422 -0.206974)
(-1.29183e-06 1.25712e-07 -1.04464e-05 -0.00264182 0.00294412 -0.206974)
(-5.65713e-06 9.52509e-08 -1.57619e-05 -0.00264231 0.00294451 -0.206973)
(-4.38731e-05 -3.06372e-06 -4.16382e-05 -0.00264336 0.00294445 -0.206956)
(-0.000313499 -2.33134e-05 -0.000296609 -0.00263358 0.00292528 -0.206874)
(-0.00221156 -8.45851e-05 -0.00211834 -0.00254295 0.00279118 -0.207196)
(-0.0194064 -0.000128401 -0.00987105 -0.0022297 0.00238097 -0.209263)
(-0.0924882 -0.000218111 -0.0552409 -0.00222791 0.00253142 -0.150913)
(-0.092727 0.000126473 0.0554262 -0.00141558 0.00157999 -0.150927)
(-0.0194664 7.90849e-05 0.0099426 -0.00139811 0.00147875 -0.209456)
(-0.00222468 5.70914e-05 0.00215089 -0.00161421 0.00174548 -0.207399)
(-0.000319104 1.65399e-05 0.000305021 -0.00168135 0.00183764 -0.207081)
(-4.5433e-05 2.36163e-06 4.2809e-05 -0.00168965 0.00185201 -0.207164)
(-5.89793e-06 -9.53017e-09 1.57094e-05 -0.0016892 0.00185242 -0.207182)
(-1.29435e-06 -8.37078e-08 1.035e-05 -0.00168889 0.00185222 -0.207183)
(-6.91082e-07 -2.14963e-08 7.30474e-06 -0.0016889 0.00185231 -0.207182)
(-4.8594e-07 -6.9638e-09 5.12435e-06 -0.00168895 0.00185244 -0.207182)
(-3.50131e-07 -5.70364e-09 3.54023e-06 -0.00168898 0.00185253 -0.207182)
(-2.50452e-07 -4.9083e-09 2.40467e-06 -0.001689 0.00185259 -0.207181)
(-1.80077e-07 -3.67452e-09 1.59341e-06 -0.00168901 0.00185263 -0.207181)
(-1.33551e-07 -2.4503e-09 1.00249e-06 -0.00168902 0.00185265 -0.207181)
(-1.05658e-07 -1.3849e-09 5.50799e-07 -0.00168903 0.00185267 -0.207181)
(-9.26404e-08 -4.51673e-10 1.75543e-07 -0.00168903 0.00185267 -0.207181)
(-9.26389e-08 4.34329e-10 -1.75388e-07 -0.00168903 0.00185267 -0.207181)
(-1.05653e-07 1.37059e-09 -5.5063e-07 -0.00168903 0.00185267 -0.207181)
(-1.3354e-07 2.44127e-09 -1.00229e-06 -0.00168902 0.00185265 -0.207181)
(-1.80054e-07 3.67219e-09 -1.59314e-06 -0.00168901 0.00185263 -0.207181)
(-2.50412e-07 4.91011e-09 -2.40427e-06 -0.001689 0.00185259 -0.207181)
(-3.50069e-07 5.70535e-09 -3.53962e-06 -0.00168898 0.00185253 -0.207182)
(-4.85854e-07 6.96194e-09 -5.12343e-06 -0.00168895 0.00185244 -0.207182)
(-6.90974e-07 2.14938e-08 -7.3034e-06 -0.0016889 0.00185231 -0.207182)
(-1.29423e-06 8.37088e-08 -1.03482e-05 -0.00168889 0.00185222 -0.207183)
(-5.89782e-06 9.53361e-09 -1.57071e-05 -0.0016892 0.00185242 -0.207182)
(-4.54329e-05 -2.36162e-06 -4.28062e-05 -0.00168965 0.00185201 -0.207164)
(-0.000319104 -1.65399e-05 -0.000305018 -0.00168135 0.00183764 -0.207081)
(-0.00222468 -5.70914e-05 -0.00215088 -0.00161421 0.00174549 -0.207399)
(-0.0194664 -7.90849e-05 -0.00994259 -0.00139811 0.00147875 -0.209456)
(-0.092727 -0.000126473 -0.0554262 -0.00141558 0.00157999 -0.150927)
(-0.0928725 7.27878e-05 0.055534 -0.000911714 0.000971385 -0.150938)
(-0.0195007 4.75254e-05 0.0099857 -0.000891713 0.000906552 -0.209572)
(-0.00223238 3.73065e-05 0.00217289 -0.00103994 0.00107561 -0.207523)
(-0.000322896 1.13371e-05 0.000311049 -0.00108949 0.00113694 -0.207209)
(-4.65514e-05 1.7354e-06 4.3698e-05 -0.00109649 0.00114725 -0.207293)
(-6.08023e-06 2.87795e-08 1.56844e-05 -0.00109641 0.00114776 -0.20731)
(-1.29948e-06 -5.37444e-08 1.02783e-05 -0.00109623 0.00114767 -0.207311)
(-6.844e-07 -1.61346e-08 7.26081e-06 -0.00109624 0.00114774 -0.207311)
(-4.82804e-07 -5.91481e-09 5.09446e-06 -0.00109628 0.00114784 -0.20731)
(-3.48318e-07 -4.67052e-09 3.51821e-06 -0.00109631 0.00114791 -0.20731)
(-2.49026e-07 -3.93983e-09 2.38882e-06 -0.00109633 0.00114795 -0.20731)
(-1.78932e-07 -2.95109e-09 1.58257e-06 -0.00109634 0.00114798 -0.20731)
(-1.32652e-07 -1.97743e-09 9.95577e-07 -0.00109635 0.001148 -0.207309)
(-1.0493e-07 -1.12459e-09 5.46983e-07 -0.00109635 0.00114801 -0.207309)
(-9.19981e-08 -3.73025e-10 1.74329e-07 -0.00109635 0.00114802 -0.207309)
(-9.1997e-08 3.43324e-10 -1.74163e-07 -0.00109635 0.00114802 -0.207309)
(-1.04926e-07 1.1007e-09 -5.46805e-07 -0.00109635 0.00114801 -0.207309)
(-1.32642e-07 1.96347e-09 -9.95371e-07 -0.00109635 0.001148 -0.207309)
(-1.78912e-07 2.94883e-09 -1.5823e-06 -0.00109634 0.00114798 -0.20731)
(-2.48988e-07 3.94575e-09 -2.38843e-06 -0.00109633 0.00114795 -0.20731)
(-3.48259e-07 4.67874e-09 -3.51762e-06 -0.00109631 0.00114791 -0.20731)
(-4.82721e-07 5.91998e-09 -5.09357e-06 -0.00109628 0.00114784 -0.20731)
(-6.84293e-07 1.61379e-08 -7.2595e-06 -0.00109624 0.00114774 -0.207311)
(-1.29936e-06 5.37485e-08 -1.02765e-05 -0.00109623 0.00114767 -0.207311)
(-6.08012e-06 -2.87764e-08 -1.56821e-05 -0.00109641 0.00114776 -0.20731)
(-4.65513e-05 -1.7354e-06 -4.36953e-05 -0.00109649 0.00114725 -0.207293)
(-0.000322896 -1.13371e-05 -0.000311046 -0.00108949 0.00113694 -0.207209)
(-0.00223238 -3.73065e-05 -0.00217288 -0.00103994 0.00107561 -0.207523)
(-0.0195007 -4.75255e-05 -0.00998569 -0.000891713 0.000906553 -0.209572)
(-0.0928725 -7.27879e-05 -0.055534 -0.000911714 0.000971389 -0.150938)
(-0.0929593 4.08924e-05 0.055596 -0.000606745 0.00057381 -0.150946)
(-0.0195202 2.74329e-05 0.0100109 -0.000589439 0.000534682 -0.209641)
(-0.00223676 2.30524e-05 0.00218709 -0.000693112 0.000636791 -0.207598)
(-0.000325341 7.30001e-06 0.000315162 -0.000730331 0.000675334 -0.207286)
(-4.73147e-05 1.18111e-06 4.43362e-05 -0.000736265 0.00068221 -0.20737)
(-6.21066e-06 3.74779e-08 1.5675e-05 -0.000736422 0.000682661 -0.207388)
(-1.30487e-06 -3.25781e-08 1.02283e-05 -0.000736317 0.000682635 -0.207389)
(-6.80038e-07 -1.10708e-08 7.22861e-06 -0.000736334 0.00068269 -0.207389)
(-4.80533e-07 -4.40427e-09 5.07229e-06 -0.000736371 0.000682757 -0.207388)
(-3.46961e-07 -3.41767e-09 3.50188e-06 -0.000736398 0.000682806 -0.207388)
(-2.47963e-07 -2.85217e-09 2.37706e-06 -0.000736416 0.000682838 -0.207388)
(-1.78081e-07 -2.14053e-09 1.57451e-06 -0.000736427 0.000682859 -0.207387)
(-1.31981e-07 -1.4419e-09 9.90427e-07 -0.000736434 0.000682872 -0.207387)
(-1.04386e-07 -8.26305e-10 5.44137e-07 -0.000736438 0.00068288 -0.207387)
(-9.1517e-08 -2.80516e-10 1.73421e-07 -0.00073644 0.000682883 -0.207387)
(-9.15161e-08 2.42199e-10 -1.73252e-07 -0.00073644 0.000682883 -0.207387)
(-1.04382e-07 7.95875e-10 -5.43956e-07 -0.000736438 0.000682879 -0.207387)
(-1.31972e-07 1.42483e-09 -9.90221e-07 -0.000736434 0.000682871 -0.207387)
(-1.78061e-07 2.1387e-09 -1.57424e-06 -0.000736427 0.000682858 -0.207387)
(-2.47927e-07 2.86123e-09 -2.37668e-06 -0.000736416 0.000682838 -0.207388)
(-3.46903e-07 3.43056e-09 -3.5013e-06 -0.000736398 0.000682805 -0.207388)
(-4.80452e-07 4.41418e-09 -5.07141e-06 -0.000736371 0.000682757 -0.207388)
(-6.79933e-07 1.10773e-08 -7.22733e-06 -0.000736334 0.00068269 -0.207389)
(-1.30476e-06 3.25826e-08 -1.02266e-05 -0.000736317 0.000682635 -0.207389)
(-6.21055e-06 -3.74774e-08 -1.56727e-05 -0.000736422 0.000682662 -0.207388)
(-4.73145e-05 -1.18112e-06 -4.43334e-05 -0.000736265 0.000682211 -0.20737)
(-0.000325341 -7.30002e-06 -0.000315159 -0.000730331 0.000675335 -0.207286)
(-0.00223676 -2.30524e-05 -0.00218708 -0.000693112 0.000636792 -0.207598)
(-0.0195202 -2.74329e-05 -0.0100109 -0.000589439 0.000534683 -0.209641)
(-0.0929593 -4.08925e-05 -0.055596 -0.000606745 0.000573814 -0.150946)
(-0.0930079 2.07749e-05 0.0556299 -0.000434225 0.000300982 -0.150951)
(-0.0195307 1.4139e-05 0.0100247 -0.000420016 0.000280235 -0.209679)
(-0.0022391 1.24581e-05 0.00219549 -0.000497138 0.000334602 -0.207641)
(-0.000326784 4.06665e-06 0.000317709 -0.000526604 0.000355707 -0.207329)
(-4.77871e-05 6.84202e-07 4.47473e-05 -0.000531798 0.000359633 -0.207414)
(-6.2945e-06 2.86188e-08 1.56727e-05 -0.000532083 0.000359935 -0.207432)
(-1.3091e-06 -1.72899e-08 1.01969e-05 -0.000532029 0.000359932 -0.207433)
(-6.77424e-07 -6.41178e-09 7.20755e-06 -0.00053205 0.000359967 -0.207433)
(-4.79063e-07 -2.67955e-09 5.05765e-06 -0.000532085 0.000360007 -0.207432)
(-3.4606e-07 -2.06341e-09 3.49109e-06 -0.00053211 0.000360036 -0.207432)
(-2.4726e-07 -1.7144e-09 2.36928e-06 -0.000532127 0.000360055 -0.207432)
(-1.77517e-07 -1.29137e-09 1.56917e-06 -0.000532138 0.000360068 -0.207432)
(-1.31536e-07 -8.76288e-10 9.87011e-07 -0.000532144 0.000360076 -0.207432)
(-1.04024e-07 -5.08535e-10 5.42246e-07 -0.000532148 0.00036008 -0.207431)
(-9.11968e-08 -1.80017e-10 1.72817e-07 -0.00053215 0.000360082 -0.207431)
(-9.11961e-08 1.37094e-10 -1.72649e-07 -0.00053215 0.000360082 -0.207431)
(-1.04021e-07 4.74796e-10 -5.42067e-07 -0.000532148 0.000360079 -0.207431)
(-1.31528e-07 8.57938e-10 -9.86807e-07 -0.000532144 0.000360075 -0.207432)
(-1.77498e-07 1.29012e-09 -1.56891e-06 -0.000532138 0.000360067 -0.207432)
(-2.47225e-07 1.7252e-09 -2.3689e-06 -0.000532127 0.000360054 -0.207432)