/*--------------------------------*- C++ -*----------------------------------*\
| =========                 |                                                 |
| \\      /  F ield         | OpenFOAM: The Open Source CFD Toolbox           |
|  \\    /   O peration     | Version:  2106                                  |
|   \\  /    A nd           | Website:  www.openfoam.com                      |
|    \\/     M anipulation  |                                                 |
\*---------------------------------------------------------------------------*/
FoamFile
{
    version     2.0;
    format      ascii;
    arch        "LSB;label=32;scalar=64";
    class       volSymmTensorField;
    location    "141";
    object      epsilonResidual;
}
// * * * * * * * * * * * * * * * * * * * * * * * * * * * * * * * * * * * * * //

dimensions      [0 0 0 0 0 0 0];

internalField   nonuniform List<symmTensor> 
9000
(
(0 0 0 0 0 0)
(0 0 0 0 0 0)
(0 0 0 0 0 0)
(0 0 0 0 0 0)
(0 0 0 0 0 0)
(0 0 0 0 0 0)
(0 0 0 0 0 0)
(0 0 0 0 0 0)
(0 0 0 0 0 0)
(0 0 0 0 0 0)
(0 0 0 0 0 0)
(0 0 0 0 0 0)
(0 0 0 0 0 0)
(0 0 0 0 0 0)
(0 0 0 0 0 0)
(0 0 0 0 0 0)
(0 0 0 0 0 0)
(0 0 0 0 0 0)
(0 0 0 0 0 0)
(0 0 0 0 0 0)
(0 0 0 0 0 0)
(0 0 0 0 0 0)
(0 0 0 0 0 0)
(0 0 0 0 0 0)
(0 0 0 0 0 0)
(0 0 0 0 0 0)
(0 0 0 0 0 0)
(0 0 0 0 0 0)
(0 0 0 0 0 0)
(0 0 0 0 0 0)
(0 0 0 0 0 0)
(0 0 0 0 0 0)
(0 0 0 0 0 0)
(0 0 0 0 0 0)
(0 0 0 0 0 0)
(0 0 0 0 0 0)
(0 0 0 0 0 0)
(0 0 0 0 0 0)
(0 0 0 0 0 0)
(0 0 0 0 0 0)
(0 0 0 0 0 0)
(0 0 0 0 0 0)
(0 0 0 0 0 0)
(0 0 0 0 0 0)
(0 0 0 0 0 0)
(0 0 0 0 0 0)
(0 0 0 0 0 0)
(0 0 0 0 0 0)
(0 0 0 0 0 0)
(0 0 0 0 0 0)
(0 0 0 0 0 0)
(0 0 0 0 0 0)
(0 0 0 0 0 0)
(0 0 0 0 0 0)
(0 0 0 0 0 0)
(0 0 0 0 0 0)
(0 0 0 0 0 0)
(0 0 0 0 0 0)
(0 0 0 0 0 0)
(0 0 0 0 0 0)
(0 0 0 0 0 0)
(0 0 0 0 0 0)
(0 0 0 0 0 0)
(0 0 0 0 0 0)
(0 0 0 0 0 0)
(0 0 0 0 0 0)
(0 0 0 0 0 0)
(0 0 0 0 0 0)
(0 0 0 0 0 0)
(0 0 0 0 0 0)
(0 0 0 0 0 0)
(0 0 0 0 0 0)
(0 0 0 0 0 0)
(0 0 0 0 0 0)
(0 0 0 0 0 0)
(0 0 0 0 0 0)
(0 0 0 0 0 0)
(0 0 0 0 0 0)
(0 0 0 0 0 0)
(0 0 0 0 0 0)
(0 0 0 0 0 0)
(0 0 0 0 0 0)
(0 0 0 0 0 0)
(0 0 0 0 0 0)
(0 0 0 0 0 0)
(0 0 0 0 0 0)
(0 0 0 0 0 0)
(0 0 0 0 0 0)
(0 0 0 0 0 0)
(0 0 0 0 0 0)
(0 0 0 0 0 0)
(0 0 0 0 0 0)
(0 0 0 0 0 0)
(0 0 0 0 0 0)
(0 0 0 0 0 0)
(0 0 0 0 0 0)
(0 0 0 0 0 0)
(0 0 0 0 0 0)
(0 0 0 0 0 0)
(0 0 0 0 0 0)
(0 0 0 0 0 0)
(0 0 0 0 0 0)
(0 0 0 0 0 0)
(0 0 0 0 0 0)
(0 0 0 0 0 0)
(0 0 0 0 0 0)
(0 0 0 0 0 0)
(0 0 0 0 0 0)
(0 0 0 0 0 0)
(0 0 0 0 0 0)
(0 0 0 0 0 0)
(0 0 0 0 0 0)
(0 0 0 0 0 0)
(0 0 0 0 0 0)
(0 0 0 0 0 0)
(0 0 0 0 0 0)
(0 0 0 0 0 0)
(0 0 0 0 0 0)
(0 0 0 0 0 0)
(0 0 0 0 0 0)
(0 0 0 0 0 0)
(0 0 0 0 0 0)
(0 0 0 0 0 0)
(0 0 0 0 0 0)
(0 0 0 0 0 0)
(0 0 0 0 0 0)
(0 0 0 0 0 0)
(0 0 0 0 0 0)
(0 0 0 0 0 0)
(0 0 0 0 0 0)
(0 0 0 0 0 0)
(0 0 0 0 0 0)
(0 0 0 0 0 0)
(0 0 0 0 0 0)
(0 0 0 0 0 0)
(0 0 0 0 0 0)
(0 0 0 0 0 0)
(0 0 0 0 0 0)
(0 0 0 0 0 0)
(0 0 0 0 0 0)
(0 0 0 0 0 0)
(0 0 0 0 0 0)
(0 0 0 0 0 0)
(0 0 0 0 0 0)
(0 0 0 0 0 0)
(0 0 0 0 0 0)
(0 0 0 0 0 0)
(0 0 0 0 0 0)
(0 0 0 0 0 0)
(0 0 0 0 0 0)
(0 0 0 0 0 0)
(0 0 0 0 0 0)
(0 0 0 0 0 0)
(0 0 0 0 0 0)
(0 0 0 0 0 0)
(0 0 0 0 0 0)
(0 0 0 0 0 0)
(0 0 0 0 0 0)
(0 0 0 0 0 0)
(0 0 0 0 0 0)
(0 0 0 0 0 0)
(0 0 0 0 0 0)
(0 0 0 0 0 0)
(0 0 0 0 0 0)
(0 0 0 0 0 0)
(0 0 0 0 0 0)
(0 0 0 0 0 0)
(0 0 0 0 0 0)
(0 0 0 0 0 0)
(0 0 0 0 0 0)
(0 0 0 0 0 0)
(0 0 0 0 0 0)
(0 0 0 0 0 0)
(0 0 0 0 0 0)
(0 0 0 0 0 0)
(0 0 0 0 0 0)
(0 0 0 0 0 0)
(0 0 0 0 0 0)
(0 0 0 0 0 0)
(0 0 0 0 0 0)
(0 0 0 0 0 0)
(0 0 0 0 0 0)
(0 0 0 0 0 0)
(0 0 0 0 0 0)
(0 0 0 0 0 0)
(0 0 0 0 0 0)
(0 0 0 0 0 0)
(0 0 0 0 0 0)
(0 0 0 0 0 0)
(0 0 0 0 0 0)
(0 0 0 0 0 0)
(0 0 0 0 0 0)
(0 0 0 0 0 0)
(0 0 0 0 0 0)
(0 0 0 0 0 0)
(0 0 0 0 0 0)
(0 0 0 0 0 0)
(0 0 0 0 0 0)
(0 0 0 0 0 0)
(0 0 0 0 0 0)
(0 0 0 0 0 0)
(0 0 0 0 0 0)
(0 0 0 0 0 0)
(0 0 0 0 0 0)
(0 0 0 0 0 0)
(0 0 0 0 0 0)
(0 0 0 0 0 0)
(0 0 0 0 0 0)
(0 0 0 0 0 0)
(0 0 0 0 0 0)
(0 0 0 0 0 0)
(0 0 0 0 0 0)
(0 0 0 0 0 0)
(0 0 0 0 0 0)
(0 0 0 0 0 0)
(0 0 0 0 0 0)
(0 0 0 0 0 0)
(0 0 0 0 0 0)
(0 0 0 0 0 0)
(0 0 0 0 0 0)
(0 0 0 0 0 0)
(0 0 0 0 0 0)
(0 0 0 0 0 0)
(0 0 0 0 0 0)
(0 0 0 0 0 0)
(0 0 0 0 0 0)
(0 0 0 0 0 0)
(0 0 0 0 0 0)
(0 0 0 0 0 0)
(0 0 0 0 0 0)
(0 0 0 0 0 0)
(0 0 0 0 0 0)
(0 0 0 0 0 0)
(0 0 0 0 0 0)
(0 0 0 0 0 0)
(0 0 0 0 0 0)
(0 0 0 0 0 0)
(0 0 0 0 0 0)
(0 0 0 0 0 0)
(0 0 0 0 0 0)
(0 0 0 0 0 0)
(0 0 0 0 0 0)
(0 0 0 0 0 0)
(0 0 0 0 0 0)
(0 0 0 0 0 0)
(0 0 0 0 0 0)
(0 0 0 0 0 0)
(0 0 0 0 0 0)
(0 0 0 0 0 0)
(0 0 0 0 0 0)
(0 0 0 0 0 0)
(0 0 0 0 0 0)
(0 0 0 0 0 0)
(0 0 0 0 0 0)
(0 0 0 0 0 0)
(0 0 0 0 0 0)
(0 0 0 0 0 0)
(0 0 0 0 0 0)
(0 0 0 0 0 0)
(0 0 0 0 0 0)
(0 0 0 0 0 0)
(0 0 0 0 0 0)
(0 0 0 0 0 0)
(0 0 0 0 0 0)
(0 0 0 0 0 0)
(0 0 0 0 0 0)
(0 0 0 0 0 0)
(0 0 0 0 0 0)
(0 0 0 0 0 0)
(0 0 0 0 0 0)
(0 0 0 0 0 0)
(0 0 0 0 0 0)
(0 0 0 0 0 0)
(0 0 0 0 0 0)
(0 0 0 0 0 0)
(0 0 0 0 0 0)
(0 0 0 0 0 0)
(0 0 0 0 0 0)
(0 0 0 0 0 0)
(0 0 0 0 0 0)
(0 0 0 0 0 0)
(0 0 0 0 0 0)
(0 0 0 0 0 0)
(0 0 0 0 0 0)
(0 0 0 0 0 0)
(0 0 0 0 0 0)
(0 0 0 0 0 0)
(0 0 0 0 0 0)
(0 0 0 0 0 0)
(0 0 0 0 0 0)
(0 0 0 0 0 0)
(0 0 0 0 0 0)
(0 0 0 0 0 0)
(0 0 0 0 0 0)
(0 0 0 0 0 0)
(0 0 0 0 0 0)
(0 0 0 0 0 0)
(0 0 0 0 0 0)
(0 0 0 0 0 0)
(0 0 0 0 0 0)
(0 0 0 0 0 0)
(0 0 0 0 0 0)
(0 0 0 0 0 0)
(0 0 0 0 0 0)
(0 0 0 0 0 0)
(0 0 0 0 0 0)
(0 0 0 0 0 0)
(0 0 0 0 0 0)
(0 0 0 0 0 0)
(0 0 0 0 0 0)
(0 0 0 0 0 0)
(0 0 0 0 0 0)
(0 0 0 0 0 0)
(0 0 0 0 0 0)
(0 0 0 0 0 0)
(0 0 0 0 0 0)
(0 0 0 0 0 0)
(0 0 0 0 0 0)
(0 0 0 0 0 0)
(0 0 0 0 0 0)
(0 0 0 0 0 0)
(0 0 0 0 0 0)
(0 0 0 0 0 0)
(0 0 0 0 0 0)
(0 0 0 0 0 0)
(0 0 0 0 0 0)
(0 0 0 0 0 0)
(0 0 0 0 0 0)
(0 0 0 0 0 0)
(0 0 0 0 0 0)
(0 0 0 0 0 0)
(0 0 0 0 0 0)
(0 0 0 0 0 0)
(0 0 0 0 0 0)
(0 0 0 0 0 0)
(0 0 0 0 0 0)
(0 0 0 0 0 0)
(0 0 0 0 0 0)
(0 0 0 0 0 0)
(0 0 0 0 0 0)
(0 0 0 0 0 0)
(0 0 0 0 0 0)
(0 0 0 0 0 0)
(0 0 0 0 0 0)
(0 0 0 0 0 0)
(0 0 0 0 0 0)
(0 0 0 0 0 0)
(0 0 0 0 0 0)
(0 0 0 0 0 0)
(0 0 0 0 0 0)
(0 0 0 0 0 0)
(0 0 0 0 0 0)
(0 0 0 0 0 0)
(0 0 0 0 0 0)
(0 0 0 0 0 0)
(0 0 0 0 0 0)
(0 0 0 0 0 0)
(0 0 0 0 0 0)
(0 0 0 0 0 0)
(0 0 0 0 0 0)
(0 0 0 0 0 0)
(0 0 0 0 0 0)
(0 0 0 0 0 0)
(0 0 0 0 0 0)
(0 0 0 0 0 0)
(0 0 0 0 0 0)
(0 0 0 0 0 0)
(0 0 0 0 0 0)
(0 0 0 0 0 0)
(0 0 0 0 0 0)
(0 0 0 0 0 0)
(0 0 0 0 0 0)
(0 0 0 0 0 0)
(0 0 0 0 0 0)
(0 0 0 0 0 0)
(0 0 0 0 0 0)
(0 0 0 0 0 0)
(0 0 0 0 0 0)
(0 0 0 0 0 0)
(0 0 0 0 0 0)
(0 0 0 0 0 0)
(0 0 0 0 0 0)
(0 0 0 0 0 0)
(0 0 0 0 0 0)
(0 0 0 0 0 0)
(0 0 0 0 0 0)
(0 0 0 0 0 0)
(0 0 0 0 0 0)
(0 0 0 0 0 0)
(0 0 0 0 0 0)
(0 0 0 0 0 0)
(0 0 0 0 0 0)
(0 0 0 0 0 0)
(0 0 0 0 0 0)
(0 0 0 0 0 0)
(0 0 0 0 0 0)
(0 0 0 0 0 0)
(0 0 0 0 0 0)
(0 0 0 0 0 0)
(0 0 0 0 0 0)
(0 0 0 0 0 0)
(0 0 0 0 0 0)
(0 0 0 0 0 0)
(0 0 0 0 0 0)
(0 0 0 0 0 0)
(0 0 0 0 0 0)
(0 0 0 0 0 0)
(0 0 0 0 0 0)
(0 0 0 0 0 0)
(0 0 0 0 0 0)
(0 0 0 0 0 0)
(0 0 0 0 0 0)
(0 0 0 0 0 0)
(0 0 0 0 0 0)
(0 0 0 0 0 0)
(0 0 0 0 0 0)
(0 0 0 0 0 0)
(0 0 0 0 0 0)
(0 0 0 0 0 0)
(0 0 0 0 0 0)
(0 0 0 0 0 0)
(0 0 0 0 0 0)
(0 0 0 0 0 0)
(0 0 0 0 0 0)
(0 0 0 0 0 0)
(0 0 0 0 0 0)
(0 0 0 0 0 0)
(0 0 0 0 0 0)
(0 0 0 0 0 0)
(0 0 0 0 0 0)
(0 0 0 0 0 0)
(0 0 0 0 0 0)
(0 0 0 0 0 0)
(0 0 0 0 0 0)
(0 0 0 0 0 0)
(0 0 0 0 0 0)
(0 0 0 0 0 0)
(0 0 0 0 0 0)
(0 0 0 0 0 0)
(0 0 0 0 0 0)
(0 0 0 0 0 0)
(0 0 0 0 0 0)
(0 0 0 0 0 0)
(0 0 0 0 0 0)
(0 0 0 0 0 0)
(0 0 0 0 0 0)
(0 0 0 0 0 0)
(0 0 0 0 0 0)
(0 0 0 0 0 0)
(0 0 0 0 0 0)
(0 0 0 0 0 0)
(0 0 0 0 0 0)
(0 0 0 0 0 0)
(0 0 0 0 0 0)
(0 0 0 0 0 0)
(0 0 0 0 0 0)
(0 0 0 0 0 0)
(0 0 0 0 0 0)
(0 0 0 0 0 0)
(0 0 0 0 0 0)
(0 0 0 0 0 0)
(0 0 0 0 0 0)
(0 0 0 0 0 0)
(0 0 0 0 0 0)
(0 0 0 0 0 0)
(0 0 0 0 0 0)
(0 0 0 0 0 0)
(0 0 0 0 0 0)
(0 0 0 0 0 0)
(0 0 0 0 0 0)
(0 0 0 0 0 0)
(0 0 0 0 0 0)
(0 0 0 0 0 0)
(0 0 0 0 0 0)
(0 0 0 0 0 0)
(0 0 0 0 0 0)
(0 0 0 0 0 0)
(0 0 0 0 0 0)
(0 0 0 0 0 0)
(0 0 0 0 0 0)
(0 0 0 0 0 0)
(0 0 0 0 0 0)
(0 0 0 0 0 0)
(0 0 0 0 0 0)
(0 0 0 0 0 0)
(0 0 0 0 0 0)
(0 0 0 0 0 0)
(0 0 0 0 0 0)
(0 0 0 0 0 0)
(0 0 0 0 0 0)
(0 0 0 0 0 0)
(0 0 0 0 0 0)
(0 0 0 0 0 0)
(0 0 0 0 0 0)
(0 0 0 0 0 0)
(0 0 0 0 0 0)
(0 0 0 0 0 0)
(0 0 0 0 0 0)
(0 0 0 0 0 0)
(0 0 0 0 0 0)
(0 0 0 0 0 0)
(0 0 0 0 0 0)
(0 0 0 0 0 0)
(0 0 0 0 0 0)
(0 0 0 0 0 0)
(0 0 0 0 0 0)
(0 0 0 0 0 0)
(0 0 0 0 0 0)
(0 0 0 0 0 0)
(0 0 0 0 0 0)
(0 0 0 0 0 0)
(0 0 0 0 0 0)
(0 0 0 0 0 0)
(0 0 0 0 0 0)
(0 0 0 0 0 0)
(0 0 0 0 0 0)
(0 0 0 0 0 0)
(0 0 0 0 0 0)
(0 0 0 0 0 0)
(0 0 0 0 0 0)
(0 0 0 0 0 0)
(0 0 0 0 0 0)
(0 0 0 0 0 0)
(0 0 0 0 0 0)
(0 0 0 0 0 0)
(0 0 0 0 0 0)
(0 0 0 0 0 0)
(0 0 0 0 0 0)
(0 0 0 0 0 0)
(0 0 0 0 0 0)
(0 0 0 0 0 0)
(0 0 0 0 0 0)
(0 0 0 0 0 0)
(0 0 0 0 0 0)
(0 0 0 0 0 0)
(0 0 0 0 0 0)
(0 0 0 0 0 0)
(0 0 0 0 0 0)
(0 0 0 0 0 0)
(0 0 0 0 0 0)
(0 0 0 0 0 0)
(0 0 0 0 0 0)
(0 0 0 0 0 0)
(0 0 0 0 0 0)
(0 0 0 0 0 0)
(0 0 0 0 0 0)
(0 0 0 0 0 0)
(0 0 0 0 0 0)
(0 0 0 0 0 0)
(0 0 0 0 0 0)
(0 0 0 0 0 0)
(0 0 0 0 0 0)
(0 0 0 0 0 0)
(0 0 0 0 0 0)
(0 0 0 0 0 0)
(0 0 0 0 0 0)
(0 0 0 0 0 0)
(0 0 0 0 0 0)
(0 0 0 0 0 0)
(0 0 0 0 0 0)
(0 0 0 0 0 0)
(0 0 0 0 0 0)
(0 0 0 0 0 0)
(0 0 0 0 0 0)
(0 0 0 0 0 0)
(0 0 0 0 0 0)
(0 0 0 0 0 0)
(0 0 0 0 0 0)
(0 0 0 0 0 0)
(0 0 0 0 0 0)
(0 0 0 0 0 0)
(0 0 0 0 0 0)
(0 0 0 0 0 0)
(0 0 0 0 0 0)
(0 0 0 0 0 0)
(0 0 0 0 0 0)
(0 0 0 0 0 0)
(0 0 0 0 0 0)
(0 0 0 0 0 0)
(0 0 0 0 0 0)
(0 0 0 0 0 0)
(0 0 0 0 0 0)
(0 0 0 0 0 0)
(0 0 0 0 0 0)
(0 0 0 0 0 0)
(0 0 0 0 0 0)
(0 0 0 0 0 0)
(0 0 0 0 0 0)
(0 0 0 0 0 0)
(0 0 0 0 0 0)
(0 0 0 0 0 0)
(0 0 0 0 0 0)
(0 0 0 0 0 0)
(0 0 0 0 0 0)
(0 0 0 0 0 0)
(0 0 0 0 0 0)
(0 0 0 0 0 0)
(0 0 0 0 0 0)
(0 0 0 0 0 0)
(0 0 0 0 0 0)
(0 0 0 0 0 0)
(0 0 0 0 0 0)
(0 0 0 0 0 0)
(0 0 0 0 0 0)
(0 0 0 0 0 0)
(0 0 0 0 0 0)
(0 0 0 0 0 0)
(0 0 0 0 0 0)
(0 0 0 0 0 0)
(0 0 0 0 0 0)
(0 0 0 0 0 0)
(0 0 0 0 0 0)
(0 0 0 0 0 0)
(0 0 0 0 0 0)
(0 0 0 0 0 0)
(0 0 0 0 0 0)
(0 0 0 0 0 0)
(0 0 0 0 0 0)
(0 0 0 0 0 0)
(0 0 0 0 0 0)
(0 0 0 0 0 0)
(0 0 0 0 0 0)
(0 0 0 0 0 0)
(0 0 0 0 0 0)
(0 0 0 0 0 0)
(0 0 0 0 0 0)
(0 0 0 0 0 0)
(0 0 0 0 0 0)
(0 0 0 0 0 0)
(0 0 0 0 0 0)
(0 0 0 0 0 0)
(0 0 0 0 0 0)
(0 0 0 0 0 0)
(0 0 0 0 0 0)
(0 0 0 0 0 0)
(0 0 0 0 0 0)
(0 0 0 0 0 0)
(0 0 0 0 0 0)
(0 0 0 0 0 0)
(0 0 0 0 0 0)
(0 0 0 0 0 0)
(0 0 0 0 0 0)
(0 0 0 0 0 0)
(0 0 0 0 0 0)
(0 0 0 0 0 0)
(0 0 0 0 0 0)
(0 0 0 0 0 0)
(0 0 0 0 0 0)
(0 0 0 0 0 0)
(0 0 0 0 0 0)
(0 0 0 0 0 0)
(0 0 0 0 0 0)
(0 0 0 0 0 0)
(0 0 0 0 0 0)
(0 0 0 0 0 0)
(0 0 0 0 0 0)
(0 0 0 0 0 0)
(0 0 0 0 0 0)
(0 0 0 0 0 0)
(0 0 0 0 0 0)
(0 0 0 0 0 0)
(0 0 0 0 0 0)
(0 0 0 0 0 0)
(0 0 0 0 0 0)
(0 0 0 0 0 0)
(0 0 0 0 0 0)
(0 0 0 0 0 0)
(0 0 0 0 0 0)
(0 0 0 0 0 0)
(0 0 0 0 0 0)
(0 0 0 0 0 0)
(0 0 0 0 0 0)
(0 0 0 0 0 0)
(0 0 0 0 0 0)
(0 0 0 0 0 0)
(0 0 0 0 0 0)
(0 0 0 0 0 0)
(0 0 0 0 0 0)
(0 0 0 0 0 0)
(0 0 0 0 0 0)
(0 0 0 0 0 0)
(0 0 0 0 0 0)
(0 0 0 0 0 0)
(0 0 0 0 0 0)
(0 0 0 0 0 0)
(0 0 0 0 0 0)
(0 0 0 0 0 0)
(0 0 0 0 0 0)
(0 0 0 0 0 0)
(0 0 0 0 0 0)
(0 0 0 0 0 0)
(0 0 0 0 0 0)
(0 0 0 0 0 0)
(0 0 0 0 0 0)
(0 0 0 0 0 0)
(0 0 0 0 0 0)
(0 0 0 0 0 0)
(0 0 0 0 0 0)
(0 0 0 0 0 0)
(0 0 0 0 0 0)
(0 0 0 0 0 0)
(0 0 0 0 0 0)
(0 0 0 0 0 0)
(0 0 0 0 0 0)
(0 0 0 0 0 0)
(0 0 0 0 0 0)
(0 0 0 0 0 0)
(0 0 0 0 0 0)
(0 0 0 0 0 0)
(0 0 0 0 0 0)
(0 0 0 0 0 0)
(0 0 0 0 0 0)
(0 0 0 0 0 0)
(0 0 0 0 0 0)
(0 0 0 0 0 0)
(0 0 0 0 0 0)
(0 0 0 0 0 0)
(0 0 0 0 0 0)
(0 0 0 0 0 0)
(0 0 0 0 0 0)
(0 0 0 0 0 0)
(0 0 0 0 0 0)
(0 0 0 0 0 0)
(0 0 0 0 0 0)
(0 0 0 0 0 0)
(0 0 0 0 0 0)
(0 0 0 0 0 0)
(0 0 0 0 0 0)
(0 0 0 0 0 0)
(0 0 0 0 0 0)
(0 0 0 0 0 0)
(0 0 0 0 0 0)
(0 0 0 0 0 0)
(0 0 0 0 0 0)
(0 0 0 0 0 0)
(0 0 0 0 0 0)
(0 0 0 0 0 0)
(0 0 0 0 0 0)
(0 0 0 0 0 0)
(0 0 0 0 0 0)
(0 0 0 0 0 0)
(0 0 0 0 0 0)
(0 0 0 0 0 0)
(0 0 0 0 0 0)
(0 0 0 0 0 0)
(0 0 0 0 0 0)
(0 0 0 0 0 0)
(0 0 0 0 0 0)
(0 0 0 0 0 0)
(0 0 0 0 0 0)
(0 0 0 0 0 0)
(0 0 0 0 0 0)
(0 0 0 0 0 0)
(0 0 0 0 0 0)
(0 0 0 0 0 0)
(0 0 0 0 0 0)
(0 0 0 0 0 0)
(0 0 0 0 0 0)
(0 0 0 0 0 0)
(0 0 0 0 0 0)
(0 0 0 0 0 0)
(0 0 0 0 0 0)
(0 0 0 0 0 0)
(0 0 0 0 0 0)
(0 0 0 0 0 0)
(0 0 0 0 0 0)
(0 0 0 0 0 0)
(0 0 0 0 0 0)
(0 0 0 0 0 0)
(0 0 0 0 0 0)
(0 0 0 0 0 0)
(0 0 0 0 0 0)
(0 0 0 0 0 0)
(0 0 0 0 0 0)
(0 0 0 0 0 0)
(0 0 0 0 0 0)
(0 0 0 0 0 0)
(0 0 0 0 0 0)
(0 0 0 0 0 0)
(0 0 0 0 0 0)
(0 0 0 0 0 0)
(0 0 0 0 0 0)
(0 0 0 0 0 0)
(0 0 0 0 0 0)
(0 0 0 0 0 0)
(0 0 0 0 0 0)
(0 0 0 0 0 0)
(0 0 0 0 0 0)
(0 0 0 0 0 0)
(0 0 0 0 0 0)
(0 0 0 0 0 0)
(0 0 0 0 0 0)
(0 0 0 0 0 0)
(0 0 0 0 0 0)
(0 0 0 0 0 0)
(0 0 0 0 0 0)
(0 0 0 0 0 0)
(0 0 0 0 0 0)
(0 0 0 0 0 0)
(0 0 0 0 0 0)
(0 0 0 0 0 0)
(0 0 0 0 0 0)
(0 0 0 0 0 0)
(0 0 0 0 0 0)
(0 0 0 0 0 0)
(0 0 0 0 0 0)
(0 0 0 0 0 0)
(0 0 0 0 0 0)
(0 0 0 0 0 0)
(0 0 0 0 0 0)
(0 0 0 0 0 0)
(0 0 0 0 0 0)
(0 0 0 0 0 0)
(0 0 0 0 0 0)
(0 0 0 0 0 0)
(0 0 0 0 0 0)
(0 0 0 0 0 0)
(0 0 0 0 0 0)
(0 0 0 0 0 0)
(0 0 0 0 0 0)
(0 0 0 0 0 0)
(0 0 0 0 0 0)
(0 0 0 0 0 0)
(0 0 0 0 0 0)
(0 0 0 0 0 0)
(0 0 0 0 0 0)
(0 0 0 0 0 0)
(0 0 0 0 0 0)
(0 0 0 0 0 0)
(0 0 0 0 0 0)
(0 0 0 0 0 0)
(0 0 0 0 0 0)
(0 0 0 0 0 0)
(0 0 0 0 0 0)
(0 0 0 0 0 0)
(0 0 0 0 0 0)
(0 0 0 0 0 0)
(0 0 0 0 0 0)
(0 0 0 0 0 0)
(0 0 0 0 0 0)
(0 0 0 0 0 0)
(0 0 0 0 0 0)
(0 0 0 0 0 0)
(0 0 0 0 0 0)
(0 0 0 0 0 0)
(0 0 0 0 0 0)
(0 0 0 0 0 0)
(0 0 0 0 0 0)
(0 0 0 0 0 0)
(0 0 0 0 0 0)
(0 0 0 0 0 0)
(0 0 0 0 0 0)
(0 0 0 0 0 0)
(0 0 0 0 0 0)
(0 0 0 0 0 0)
(0 0 0 0 0 0)
(0 0 0 0 0 0)
(0 0 0 0 0 0)
(0 0 0 0 0 0)
(0 0 0 0 0 0)
(0 0 0 0 0 0)
(0 0 0 0 0 0)
(0 0 0 0 0 0)
(0 0 0 0 0 0)
(0 0 0 0 0 0)
(0 0 0 0 0 0)
(0 0 0 0 0 0)
(0 0 0 0 0 0)
(0 0 0 0 0 0)
(0 0 0 0 0 0)
(0 0 0 0 0 0)
(0 0 0 0 0 0)
(0 0 0 0 0 0)
(0 0 0 0 0 0)
(0 0 0 0 0 0)
(0 0 0 0 0 0)
(0 0 0 0 0 0)
(0 0 0 0 0 0)
(0 0 0 0 0 0)
(0 0 0 0 0 0)
(0 0 0 0 0 0)
(0 0 0 0 0 0)
(0 0 0 0 0 0)
(0 0 0 0 0 0)
(0 0 0 0 0 0)
(0 0 0 0 0 0)
(0 0 0 0 0 0)
(0 0 0 0 0 0)
(0 0 0 0 0 0)
(0 0 0 0 0 0)
(0 0 0 0 0 0)
(0 0 0 0 0 0)
(0 0 0 0 0 0)
(0 0 0 0 0 0)
(0 0 0 0 0 0)
(0 0 0 0 0 0)
(0 0 0 0 0 0)
(0 0 0 0 0 0)
(0 0 0 0 0 0)
(0 0 0 0 0 0)
(-0.00786255 0.000654564 -0.018082 0.188154 0.0212125 0.0841589)
(0.0431735 -0.0017931 -0.0156144 0.185602 0.0198356 0.0863954)
(0.00443001 -0.00121204 -0.00877357 0.203983 0.0206132 0.0992269)
(0.000568725 -0.000205097 -0.00448438 0.206716 0.0203303 0.101715)
(9.88028e-05 9.90505e-08 -0.00277858 0.206882 0.0201332 0.101912)
(1.36268e-05 5.75906e-06 -0.00193448 0.206927 0.0200268 0.101625)
(2.57046e-06 5.19189e-07 -0.00138277 0.207023 0.0199354 0.101208)
(1.9744e-06 -3.97318e-07 -0.000977122 0.20712 0.0198529 0.100812)
(1.67413e-06 -2.82321e-07 -0.000675121 0.207196 0.0197874 0.100502)
(1.24187e-06 -1.64568e-07 -0.000455873 0.20725 0.0197407 0.100285)
(8.73307e-07 -1.01058e-07 -0.000301248 0.207284 0.0197097 0.100145)
(6.07037e-07 -6.23037e-08 -0.000193948 0.207306 0.0196901 0.100057)
(4.3074e-07 -3.67959e-08 -0.000118906 0.207319 0.0196782 0.100004)
(3.25922e-07 -1.93019e-08 -6.4099e-05 0.207326 0.0196714 0.0999743)
(2.77602e-07 -6.01563e-09 -2.02365e-05 0.207329 0.0196683 0.0999607)
(2.7764e-07 5.98955e-09 2.01836e-05 0.207329 0.0196683 0.0999606)
(3.26032e-07 1.92788e-08 6.40558e-05 0.207326 0.0196714 0.0999741)
(4.30909e-07 3.67796e-08 0.000118881 0.207319 0.0196782 0.100004)
(6.07243e-07 6.22995e-08 0.000193947 0.207306 0.0196901 0.100057)
(8.73524e-07 1.01069e-07 0.000301274 0.207284 0.0197097 0.100145)
(1.24207e-06 1.64594e-07 0.000455925 0.20725 0.0197407 0.100285)
(1.67431e-06 2.82366e-07 0.000675198 0.207196 0.0197874 0.100502)
(1.97452e-06 3.97395e-07 0.000977219 0.20712 0.0198529 0.100812)
(2.5704e-06 -5.19091e-07 0.00138288 0.207023 0.0199354 0.101209)
(1.36264e-05 -5.75909e-06 0.00193458 0.206927 0.0200268 0.101626)
(9.88019e-05 -9.95095e-08 0.00277863 0.206882 0.0201332 0.101913)
(0.000568723 0.000205096 0.00448432 0.206716 0.0203304 0.101715)
(0.00443 0.00121204 0.00877335 0.203983 0.0206133 0.099227)
(0.0431735 0.0017931 0.015614 0.185602 0.0198355 0.0863948)
(-0.00786233 -0.000654561 0.0180818 0.188154 0.0212123 0.0841577)
(-0.0223162 0.00011723 -0.01836 0.289906 0.00758823 0.0396503)
(0.0421243 -0.00199295 -0.0148222 0.303464 0.00635976 0.0395283)
(0.00422819 -0.0013353 -0.00777915 0.321599 0.00614117 0.0499127)
(0.000388031 -0.000233789 -0.00420152 0.325308 0.00527484 0.0522222)
(5.17757e-05 4.4229e-06 -0.00270876 0.32544 0.00490858 0.0526882)
(1.10756e-05 8.59466e-06 -0.00189585 0.325363 0.00474808 0.0526012)
(3.81984e-06 1.13914e-06 -0.00134897 0.325353 0.00461327 0.0523299)
(2.22414e-06 -1.7817e-07 -0.000949358 0.325358 0.00448956 0.0520494)
(1.61226e-06 -1.03937e-07 -0.000654468 0.325363 0.00439048 0.0518273)
(1.17421e-06 -2.88423e-08 -0.00044158 0.325366 0.00431967 0.0516733)
(8.28841e-07 -9.79729e-09 -0.000291858 0.325368 0.00427274 0.0515742)
(5.77486e-07 -4.41982e-09 -0.000188032 0.325369 0.00424309 0.0515129)
(4.10412e-07 -1.95104e-09 -0.000115369 0.32537 0.00422509 0.0514762)
(3.11085e-07 -7.69998e-10 -6.22298e-05 0.32537 0.0042149 0.0514554)
(2.65302e-07 -1.76132e-10 -1.96511e-05 0.32537 0.00421029 0.051446)
(2.65335e-07 2.64596e-10 1.96047e-05 0.32537 0.00421029 0.0514459)
(3.11179e-07 8.41747e-10 6.21921e-05 0.32537 0.00421488 0.0514553)
(4.10554e-07 1.99441e-09 0.000115348 0.32537 0.00422507 0.051476)
(5.7766e-07 4.43161e-09 0.000188032 0.325369 0.00424306 0.0515127)
(8.29024e-07 9.77832e-09 0.000291882 0.325368 0.00427272 0.051574)
(1.17438e-06 2.8796e-08 0.000441628 0.325366 0.00431966 0.0516731)
(1.61241e-06 1.03878e-07 0.000654537 0.325363 0.00439048 0.0518272)
(2.22425e-06 1.78129e-07 0.000949445 0.325358 0.00448958 0.0520494)
(3.81986e-06 -1.13915e-06 0.00134907 0.325353 0.00461331 0.05233)
(1.10754e-05 -8.5948e-06 0.00189594 0.325363 0.00474815 0.0526015)
(5.17751e-05 -4.42351e-06 0.0027088 0.32544 0.00490868 0.0526886)
(0.000388029 0.000233788 0.00420147 0.325308 0.00527495 0.0522225)
(0.00422819 0.0013353 0.00777897 0.321599 0.00614122 0.0499128)
(0.0421243 0.00199295 0.0148219 0.303464 0.00635961 0.0395278)
(-0.022316 -0.000117228 0.0183599 0.289906 0.00758772 0.0396496)
(0.00800195 -0.00289886 -0.0184375 0.152751 -0.0266758 0.0490251)
(0.0424128 -0.00203041 -0.0143605 0.158758 -0.0257093 0.0504766)
(0.00424962 -0.00117423 -0.00741663 0.167409 -0.0278319 0.061843)
(0.000359132 -0.000222667 -0.00404875 0.169413 -0.0290249 0.0644761)
(3.54877e-05 -5.91033e-07 -0.00264341 0.169455 -0.0293816 0.0650905)
(9.32428e-06 7.6302e-06 -0.00185566 0.169395 -0.0295122 0.0651013)
(4.29778e-06 1.24196e-06 -0.00131821 0.169387 -0.0296195 0.0649045)
(2.3525e-06 -7.73921e-08 -0.000925647 0.169389 -0.0297187 0.0646814)
(1.57453e-06 -5.39463e-08 -0.000637116 0.169391 -0.0297986 0.0645017)
(1.12794e-06 1.56556e-09 -0.000429549 0.169392 -0.0298557 0.0643773)
(7.96483e-07 1.06968e-08 -0.000283889 0.169393 -0.0298936 0.0642979)
(5.5552e-07 9.08549e-09 -0.000182966 0.169393 -0.0299175 0.0642492)
(3.95152e-07 6.41093e-09 -0.000112321 0.169394 -0.0299319 0.0642202)
(2.99865e-07 3.75483e-09 -6.06124e-05 0.169394 -0.0299401 0.0642039)
(2.55963e-07 1.2688e-09 -1.91431e-05 0.169394 -0.0299438 0.0641965)
(2.5599e-07 -1.12753e-09 1.91042e-05 0.169394 -0.0299438 0.0641964)
(2.99942e-07 -3.63848e-09 6.05809e-05 0.169394 -0.0299401 0.0642038)
(3.95269e-07 -6.33799e-09 0.000112303 0.169394 -0.0299319 0.0642201)
(5.55663e-07 -9.06335e-09 0.000182967 0.169393 -0.0299175 0.0642491)
(7.96635e-07 -1.07257e-08 0.00028391 0.169393 -0.0298936 0.0642977)
(1.12809e-06 -1.63973e-09 0.000429591 0.169392 -0.0298557 0.0643772)
(1.57466e-06 5.38453e-08 0.000637178 0.169391 -0.0297986 0.0645017)
(2.3526e-06 7.73019e-08 0.000925725 0.169389 -0.0297187 0.0646814)
(4.29786e-06 -1.24202e-06 0.0013183 0.169387 -0.0296194 0.0649046)
(9.32427e-06 -7.63032e-06 0.00185574 0.169395 -0.0295121 0.0651015)
(3.54872e-05 5.90657e-07 0.00264346 0.169455 -0.0293815 0.0650907)
(0.00035913 0.000222667 0.00404873 0.169413 -0.0290248 0.0644763)
(0.00424961 0.00117423 0.00741649 0.167409 -0.0278319 0.0618431)
(0.0424128 0.00203041 0.0143603 0.158758 -0.0257094 0.0504763)
(0.00800204 0.00289886 0.0184375 0.152751 -0.0266763 0.0490247)
(0.0222698 -0.00460774 -0.0187676 0.0812173 -0.0300091 0.0655391)
(0.0438408 -0.00199041 -0.0142802 0.0856551 -0.028767 0.0687004)
(0.00439112 -0.00103906 -0.00733737 0.0901271 -0.0310847 0.0815358)
(0.000398201 -0.000216492 -0.00396735 0.091273 -0.0322372 0.0845296)
(3.83459e-05 -6.82084e-06 -0.00258704 0.091297 -0.0325759 0.0852353)
(8.75777e-06 6.36474e-06 -0.00181748 0.0912549 -0.0326955 0.0853006)
(4.28875e-06 1.28259e-06 -0.00129045 0.0912479 -0.0327866 0.0851467)
(2.37225e-06 -2.55965e-08 -0.000905072 0.0912493 -0.0328691 0.0849557)
(1.54962e-06 -4.97569e-08 -0.000622257 0.0912505 -0.0329354 0.0847989)
(1.09865e-06 -1.6669e-09 -0.000419236 0.0912511 -0.0329829 0.0846902)
(7.74462e-07 8.94177e-09 -0.000277011 0.0912515 -0.0330143 0.0846213)
(5.40077e-07 8.5013e-09 -0.000178561 0.0912517 -0.0330341 0.0845794)
(3.8425e-07 6.28249e-09 -0.000109654 0.0912519 -0.0330461 0.0845546)
(2.91761e-07 3.76046e-09 -5.91931e-05 0.091252 -0.0330528 0.0845406)
(2.49179e-07 1.28386e-09 -1.86964e-05 0.091252 -0.0330558 0.0845343)
(2.49201e-07 -1.1357e-09 1.86653e-05 0.091252 -0.0330558 0.0845343)
(2.91824e-07 -3.63823e-09 5.91682e-05 0.091252 -0.0330528 0.0845406)
(3.84346e-07 -6.2051e-09 0.000109641 0.0912519 -0.0330461 0.0845545)
(5.40195e-07 -8.47584e-09 0.000178563 0.0912517 -0.0330341 0.0845793)
(7.74588e-07 -8.9679e-09 0.000277031 0.0912515 -0.0330143 0.0846212)
(1.09877e-06 1.59618e-09 0.000419273 0.0912511 -0.0329829 0.0846902)
(1.54973e-06 4.96619e-08 0.000622311 0.0912505 -0.0329354 0.0847989)
(2.37235e-06 2.55158e-08 0.000905141 0.0912493 -0.0328691 0.0849557)
(4.28885e-06 -1.28263e-06 0.00129053 0.0912479 -0.0327865 0.0851467)
(8.75782e-06 -6.36485e-06 0.00181756 0.0912549 -0.0326954 0.0853008)
(3.83455e-05 6.82053e-06 0.00258709 0.091297 -0.0325758 0.0852354)
(0.000398199 0.000216492 0.00396734 0.091273 -0.0322372 0.0845298)
(0.00439112 0.00103906 0.00733727 0.0901271 -0.0310847 0.0815359)
(0.0438408 0.00199041 0.0142801 0.0856551 -0.0287671 0.0687002)
(0.0222699 0.00460774 0.0187676 0.0812173 -0.0300096 0.0655388)
(0.029118 -0.00456729 -0.0193237 0.0471441 -0.0243893 0.0773947)
(0.0456046 -0.00175232 -0.0144141 0.0505843 -0.0232166 0.0816154)
(0.00457964 -0.000859456 -0.00736035 0.0534831 -0.0251915 0.0956226)
(0.00045346 -0.000192425 -0.00392211 0.0542402 -0.0261873 0.0989011)
(4.88971e-05 -1.06366e-05 -0.00254041 0.054267 -0.0265011 0.0996721)
(9.10508e-06 4.82e-06 -0.00178304 0.0542384 -0.0266156 0.0997735)
(4.08246e-06 1.19909e-06 -0.0012657 0.0542328 -0.0266962 0.0996477)
(2.32476e-06 2.51122e-08 -0.000887135 0.0542335 -0.0267666 0.0994774)
(1.52805e-06 -3.60147e-08 -0.000609424 0.0542343 -0.0268228 0.0993351)
(1.07864e-06 -7.33064e-11 -0.000410321 0.0542347 -0.026863 0.0992363)
(7.58465e-07 9.49393e-09 -0.000271031 0.054235 -0.0268896 0.099174)
(5.28442e-07 9.11596e-09 -0.000174706 0.0542351 -0.0269063 0.0991364)
(3.75888e-07 6.77334e-09 -0.000107309 0.0542352 -0.0269164 0.0991142)
(2.85472e-07 4.05759e-09 -5.7941e-05 0.0542353 -0.026922 0.0991018)
(2.43884e-07 1.37993e-09 -1.83016e-05 0.0542353 -0.0269246 0.0990962)
(2.43901e-07 -1.23991e-09 1.82781e-05 0.0542353 -0.0269246 0.0990962)
(2.85522e-07 -3.94193e-09 5.79224e-05 0.0542353 -0.026922 0.0991018)
(3.75965e-07 -6.69958e-09 0.0001073 0.0542352 -0.0269164 0.0991142)
(5.28538e-07 -9.09025e-09 0.00017471 0.0542351 -0.0269063 0.0991363)
(7.58569e-07 -9.51554e-09 0.000271049 0.054235 -0.0268896 0.099174)
(1.07874e-06 1.17023e-11 0.000410353 0.0542347 -0.026863 0.0992363)
(1.52815e-06 3.59337e-08 0.000609472 0.0542343 -0.0268228 0.0993351)
(2.32487e-06 -2.51749e-08 0.000887196 0.0542335 -0.0267666 0.0994775)
(4.08258e-06 -1.19912e-06 0.00126578 0.0542328 -0.0266962 0.0996478)
(9.10514e-06 -4.82009e-06 0.00178312 0.0542384 -0.0266155 0.0997736)
(4.88967e-05 1.06363e-05 0.00254047 0.054267 -0.026501 0.0996722)
(0.000453458 0.000192424 0.00392212 0.0542402 -0.0261872 0.0989013)
(0.00457964 0.000859456 0.00736029 0.0534831 -0.0251915 0.0956227)
(0.0456046 0.00175232 0.014414 0.0505843 -0.0232168 0.0816153)
(0.0291181 0.00456729 0.0193237 0.0471441 -0.0243898 0.0773943)
(0.0329806 -0.00361465 -0.019969 0.0292503 -0.018615 0.0848147)
(0.0471477 -0.00139673 -0.0146673 0.0315486 -0.0176873 0.089649)
(0.00476452 -0.000670021 -0.00742128 0.0337359 -0.0192783 0.104496)
(0.000503885 -0.000157978 -0.00389735 0.0342951 -0.0201145 0.107993)
(6.04497e-05 -1.18471e-05 -0.00250279 0.0343251 -0.0203999 0.108817)
(9.93692e-06 3.30913e-06 -0.00175292 0.0343063 -0.0205092 0.108945)
(3.86018e-06 1.02104e-06 -0.00124394 0.034302 -0.0205819 0.108839)
(2.24988e-06 6.53074e-08 -0.000871541 0.0343024 -0.0206428 0.108684)
(1.5062e-06 -1.54949e-08 -0.000598336 0.0343029 -0.0206909 0.108552)
(1.06301e-06 6.37849e-09 -0.000402607 0.0343032 -0.0207253 0.10846)
(7.45693e-07 1.26553e-08 -0.000265829 0.0343034 -0.020748 0.108402)
(5.18892e-07 1.11574e-08 -0.000171333 0.0343035 -0.0207623 0.108368)
(3.68919e-07 8.03885e-09 -0.000105248 0.0343036 -0.0207708 0.108347)
(2.80181e-07 4.73621e-09 -5.68373e-05 0.0343036 -0.0207756 0.108336)
(2.39407e-07 1.58821e-09 -1.79531e-05 0.0343036 -0.0207778 0.108331)
(2.3942e-07 -1.46455e-09 1.79366e-05 0.0343036 -0.0207778 0.108331)
(2.8022e-07 -4.63388e-09 5.68246e-05 0.0343036 -0.0207756 0.108336)
(3.68979e-07 -7.97313e-09 0.000105242 0.0343036 -0.0207708 0.108347)
(5.18969e-07 -1.11335e-08 0.000171338 0.0343035 -0.0207623 0.108368)
(7.45779e-07 -1.26723e-08 0.000265846 0.0343034 -0.020748 0.108402)
(1.0631e-06 -6.42965e-09 0.000402635 0.0343032 -0.0207253 0.10846)
(1.50629e-06 1.54288e-08 0.000598378 0.0343029 -0.0206909 0.108552)
(2.24998e-06 -6.53541e-08 0.000871596 0.0343024 -0.0206428 0.108684)
(3.8603e-06 -1.02106e-06 0.00124401 0.034302 -0.0205818 0.10884)
(9.93697e-06 -3.30918e-06 0.001753 0.0343063 -0.0205092 0.108945)
(6.04494e-05 1.18469e-05 0.00250286 0.0343251 -0.0203998 0.108817)
(0.000503884 0.000157978 0.00389739 0.0342951 -0.0201144 0.107993)
(0.00476451 0.000670021 0.00742125 0.0337359 -0.0192783 0.104497)
(0.0471477 0.00139673 0.0146672 0.0315486 -0.0176874 0.0896489)
(0.0329807 0.00361465 0.019969 0.0292503 -0.0186155 0.0848142)
(0.0353703 -0.00250471 -0.0205728 0.0186085 -0.0142244 0.0895877)
(0.0482781 -0.00102616 -0.0149659 0.0199174 -0.0135546 0.0948108)
(0.00491781 -0.000501746 -0.00749597 0.0216177 -0.0148144 0.110252)
(0.000544466 -0.000123224 -0.00388521 0.022051 -0.0155098 0.11392)
(7.04042e-05 -1.13277e-05 -0.00247292 0.022081 -0.0157648 0.114791)
(1.09138e-05 2.07187e-06 -0.00172714 0.0220691 -0.0158673 0.11494)
(3.69394e-06 8.07395e-07 -0.00122507 0.0220659 -0.0159329 0.11485)
(2.17329e-06 8.68633e-08 -0.000858096 0.0220661 -0.0159859 0.114705)
(1.48407e-06 2.60086e-09 -0.000588808 0.0220665 -0.0160272 0.11458)
(1.04956e-06 1.26815e-08 -0.000395964 0.0220667 -0.0160567 0.114494)
(7.34849e-07 1.55236e-08 -0.000261328 0.0220669 -0.0160762 0.114439)
(5.10662e-07 1.28606e-08 -0.000168398 0.022067 -0.0160884 0.114407)
(3.62845e-07 9.04183e-09 -0.000103446 0.022067 -0.0160957 0.114388)
(2.75537e-07 5.25517e-09 -5.58705e-05 0.022067 -0.0160997 0.114378)
(2.35462e-07 1.74128e-09 -1.76476e-05 0.022067 -0.0161016 0.114373)
(2.35472e-07 -1.64074e-09 1.76371e-05 0.022067 -0.0161016 0.114373)
(2.75565e-07 -5.17185e-09 5.5863e-05 0.022067 -0.0160997 0.114378)
(3.62891e-07 -8.98799e-09 0.000103445 0.022067 -0.0160957 0.114388)
(5.10722e-07 -1.28401e-08 0.000168404 0.022067 -0.0160884 0.114407)
(7.34919e-07 -1.55358e-08 0.000261343 0.0220669 -0.0160762 0.114439)
(1.04964e-06 -1.27205e-08 0.00039599 0.0220667 -0.0160567 0.114494)
(1.48416e-06 -2.65014e-09 0.000588845 0.0220665 -0.0160273 0.11458)
(2.1734e-06 -8.68923e-08 0.000858146 0.0220661 -0.0159859 0.114705)
(3.69407e-06 -8.07387e-07 0.00122514 0.0220659 -0.0159328 0.11485)
(1.09139e-05 -2.07187e-06 0.00172722 0.0220691 -0.0158672 0.114941)
(7.04038e-05 1.13276e-05 0.002473 0.022081 -0.0157647 0.114791)
(0.000544465 0.000123224 0.00388527 0.022051 -0.0155098 0.11392)
(0.0049178 0.000501746 0.00749598 0.0216177 -0.0148143 0.110252)
(0.0482781 0.00102616 0.0149658 0.0199174 -0.0135548 0.0948107)
(0.0353704 0.00250471 0.0205728 0.0186085 -0.0142249 0.0895871)
(0.036848 -0.00159609 -0.0210649 0.0118563 -0.0109624 0.0928411)
(0.0490215 -0.000706571 -0.0152561 0.0124994 -0.0104973 0.098332)
(0.00503098 -0.000365101 -0.00757287 0.0137872 -0.01148 0.114189)
(0.00057562 -9.31932e-05 -0.00388102 0.0141245 -0.0120522 0.117995)
(7.82661e-05 -9.94931e-06 -0.00244948 0.0141524 -0.0122755 0.118907)
(1.18422e-05 1.17934e-06 -0.00170549 0.0141452 -0.0123694 0.119074)
(3.59244e-06 6.03498e-07 -0.00120898 0.0141429 -0.0124282 0.118995)
(2.1072e-06 9.10538e-08 -0.000846639 0.0141431 -0.0124742 0.118858)
(1.46292e-06 1.42693e-08 -0.0005807 0.0141434 -0.0125097 0.118739)
(1.03759e-06 1.64269e-08 -0.000390297 0.0141435 -0.0125349 0.118656)
(7.25453e-07 1.6756e-08 -0.000257467 0.0141436 -0.0125515 0.118605)
(5.03487e-07 1.34284e-08 -0.000165868 0.0141437 -0.0125618 0.118574)
(3.57506e-07 9.31792e-09 -0.000101888 0.0141437 -0.012568 0.118557)
(2.71432e-07 5.37378e-09 -5.50321e-05 0.0141438 -0.0125715 0.118547)
(2.31966e-07 1.76541e-09 -1.73823e-05 0.0141438 -0.012573 0.118543)
(2.31972e-07 -1.69274e-09 1.73771e-05 0.0141438 -0.012573 0.118543)
(2.71451e-07 -5.31353e-09 5.5029e-05 0.0141438 -0.0125715 0.118547)
(3.57539e-07 -9.27876e-09 0.000101889 0.0141437 -0.0125681 0.118557)
(5.03533e-07 -1.34126e-08 0.000165875 0.0141437 -0.0125619 0.118574)
(7.25509e-07 -1.67628e-08 0.000257482 0.0141436 -0.0125515 0.118605)
(1.03766e-06 -1.64519e-08 0.00039032 0.0141435 -0.0125349 0.118656)
(1.463e-06 -1.42993e-08 0.000580733 0.0141434 -0.0125097 0.118739)
(2.10732e-06 -9.10623e-08 0.000846686 0.0141431 -0.0124742 0.118858)
(3.59258e-06 -6.03465e-07 0.00120905 0.0141429 -0.0124282 0.118995)
(1.18423e-05 -1.17928e-06 0.00170558 0.0141452 -0.0123694 0.119074)
(7.82658e-05 9.94935e-06 0.00244958 0.0141524 -0.0122754 0.118907)
(0.000575618 9.31932e-05 0.00388109 0.0141245 -0.0120521 0.117995)
(0.00503097 0.000365101 0.0075729 0.0137872 -0.0114799 0.114189)
(0.0490215 0.000706569 0.0152561 0.0124994 -0.0104974 0.0983319)
(0.0368482 0.00159609 0.021065 0.0118563 -0.010963 0.0928404)
(0.0377252 -0.000965637 -0.021431 0.00752163 -0.00845752 0.0951397)
(0.0494782 -0.000462804 -0.0155078 0.00779155 -0.00813754 0.10082)
(0.00510766 -0.000259336 -0.00764528 0.00873122 -0.00889085 0.116962)
(0.000598883 -6.90271e-05 -0.0038817 0.00899022 -0.00935436 0.120877)