/*--------------------------------*- C++ -*----------------------------------*\
| =========                 |                                                 |
| \\      /  F ield         | OpenFOAM: The Open Source CFD Toolbox           |
|  \\    /   O peration     | Version:  2106                                  |
|   \\  /    A nd           | Website:  www.openfoam.com                      |
|    \\/     M anipulation  |                                                 |
\*---------------------------------------------------------------------------*/
FoamFile
{
    version     2.0;
    format      ascii;
    arch        "LSB;label=32;scalar=64";
    class       volSymmTensorField;
    location    "141";
    object      sigma;
}
// * * * * * * * * * * * * * * * * * * * * * * * * * * * * * * * * * * * * * //

dimensions      [1 -1 -2 0 0 0 0];

internalField   nonuniform List<symmTensor> 
9000
(
(5.4022e+07 -148308 2.49337e+07 2.21344e+07 3.18621e+07 8.57061e+07)
(9.64526e+07 274085 4.85613e+06 2.42777e+07 3.36925e+07 6.94678e+07)
(1.11135e+08 173773 1.32379e+06 2.61383e+07 3.57823e+07 8.1807e+07)
(1.12945e+08 26493.4 226525 2.62752e+07 3.62419e+07 8.38892e+07)
(1.13166e+08 -427.845 23647 2.63088e+07 3.62609e+07 8.39797e+07)
(1.13194e+08 -763.603 5739.2 2.6318e+07 3.62499e+07 8.39533e+07)
(1.13197e+08 -66.2579 5626.45 2.63191e+07 3.6248e+07 8.39503e+07)
(1.13198e+08 37.3771 4612.62 2.63192e+07 3.62486e+07 8.39534e+07)
(1.13199e+08 22.9291 3317.64 2.63193e+07 3.62491e+07 8.3956e+07)
(1.132e+08 12.2554 2297.67 2.63194e+07 3.62494e+07 8.39579e+07)
(1.132e+08 7.81254 1563.57 2.63194e+07 3.62496e+07 8.39591e+07)
(1.132e+08 5.21533 1037.59 2.63195e+07 3.62498e+07 8.39599e+07)
(1.13201e+08 3.31203 653.077 2.63195e+07 3.62498e+07 8.39605e+07)
(1.13201e+08 1.82744 358.725 2.63195e+07 3.62499e+07 8.39608e+07)
(1.13201e+08 0.580508 114.162 2.63195e+07 3.62499e+07 8.3961e+07)
(1.13201e+08 -0.590434 -114.488 2.63195e+07 3.62499e+07 8.3961e+07)
(1.13201e+08 -1.83775 -358.936 2.63195e+07 3.62499e+07 8.39608e+07)
(1.13201e+08 -3.32382 -653.078 2.63195e+07 3.62498e+07 8.39605e+07)
(1.132e+08 -5.23153 -1037.31 2.63195e+07 3.62498e+07 8.39599e+07)
(1.132e+08 -7.83759 -1562.96 2.63194e+07 3.62496e+07 8.39591e+07)
(1.132e+08 -12.2932 -2296.68 2.63194e+07 3.62494e+07 8.39579e+07)
(1.13199e+08 -22.9774 -3316.27 2.63193e+07 3.62491e+07 8.3956e+07)
(1.13198e+08 -37.4233 -4610.92 2.63192e+07 3.62486e+07 8.39534e+07)
(1.13197e+08 66.2299 -5624.51 2.63191e+07 3.6248e+07 8.39503e+07)
(1.13194e+08 763.592 -5737.13 2.6318e+07 3.62499e+07 8.39533e+07)
(1.13166e+08 427.818 -23644.9 2.63088e+07 3.62609e+07 8.39797e+07)
(1.12945e+08 -26493.5 -226523 2.62752e+07 3.62419e+07 8.38892e+07)
(1.11135e+08 -173773 -1.32379e+06 2.61383e+07 3.57823e+07 8.1807e+07)
(9.64526e+07 -274085 -4.85613e+06 2.42777e+07 3.36925e+07 6.94678e+07)
(5.4022e+07 148308 -2.49337e+07 2.21344e+07 3.18621e+07 8.57061e+07)
(4.16645e+07 -18581.5 2.40698e+07 2.81981e+07 3.52974e+07 1.25806e+07)
(7.27749e+07 349577 4.15564e+06 2.79212e+07 3.71166e+07 -8.97787e+06)
(8.59652e+07 223510 791920 3.04387e+07 3.94435e+07 -1.41478e+06)
(8.73091e+07 36719.4 110048 3.03423e+07 4.00361e+07 -532381)
(8.74487e+07 -1379.2 19520.4 3.03693e+07 4.00607e+07 -506772)
(8.74715e+07 -1469.08 8722.65 3.03925e+07 4.00428e+07 -506710)
(8.74754e+07 -175.012 5958.81 3.03962e+07 4.00394e+07 -505192)
(8.7476e+07 27.3891 4307.48 3.03958e+07 4.00399e+07 -504039)
(8.74763e+07 10.4202 3065.19 3.03954e+07 4.00405e+07 -503175)
(8.74765e+07 -0.507962 2132.51 3.03951e+07 4.00409e+07 -502548)
(8.74767e+07 -1.59156 1453.47 3.0395e+07 4.00411e+07 -502113)
(8.74768e+07 -1.05975 964.494 3.03949e+07 4.00412e+07 -501822)
(8.74769e+07 -0.628617 606.968 3.03948e+07 4.00413e+07 -501633)
(8.74769e+07 -0.329347 333.364 3.03948e+07 4.00414e+07 -501521)
(8.7477e+07 -0.0932872 106.076 3.03948e+07 4.00414e+07 -501468)
(8.7477e+07 0.12082 -106.414 3.03948e+07 4.00414e+07 -501468)
(8.74769e+07 0.349709 -333.599 3.03948e+07 4.00414e+07 -501521)
(8.74769e+07 0.636019 -607.019 3.03948e+07 4.00413e+07 -501634)
(8.74768e+07 1.05102 -964.31 3.03949e+07 4.00412e+07 -501822)
(8.74767e+07 1.56644 -1453.02 3.0395e+07 4.00411e+07 -502114)
(8.74765e+07 0.469402 -2131.8 3.03951e+07 4.00409e+07 -502549)
(8.74763e+07 -10.4665 -3064.19 3.03954e+07 4.00405e+07 -503176)
(8.7476e+07 -27.4346 -4306.19 3.03958e+07 4.004e+07 -504039)
(8.74754e+07 174.973 -5957.25 3.03962e+07 4.00394e+07 -505192)
(8.74715e+07 1469.04 -8720.9 3.03925e+07 4.00428e+07 -506709)
(8.74487e+07 1379.12 -19518.7 3.03693e+07 4.00607e+07 -506771)
(8.73091e+07 -36719.5 -110046 3.03423e+07 4.00361e+07 -532380)
(8.59652e+07 -223510 -791918 3.04387e+07 3.94435e+07 -1.41478e+06)
(7.27749e+07 -349577 -4.15563e+06 2.79212e+07 3.71166e+07 -8.97787e+06)
(4.16645e+07 18581.5 -2.40698e+07 2.81981e+07 3.52974e+07 1.25806e+07)
(4.52674e+07 598269 2.41925e+07 5.48271e+07 3.00083e+07 5.52892e+06)
(7.99865e+07 449697 4.0803e+06 5.74074e+07 3.13877e+07 -1.56736e+07)
(9.38448e+07 268430 702024 6.20209e+07 3.35391e+07 -8.36813e+06)
(9.52503e+07 50096.6 78908 6.22104e+07 3.41008e+07 -7.62447e+06)
(9.53846e+07 85.3022 17157.8 6.22516e+07 3.41308e+07 -7.6079e+06)
(9.54033e+07 -1676.13 9544.13 6.22744e+07 3.41146e+07 -7.60367e+06)
(9.54068e+07 -251.36 6057.63 6.22784e+07 3.41111e+07 -7.60132e+06)
(9.54076e+07 30.9101 4165.39 6.22784e+07 3.41116e+07 -7.60039e+06)
(9.54079e+07 19.5235 2939.69 6.22782e+07 3.41122e+07 -7.59976e+06)
(9.54081e+07 4.7221 2046.99 6.22781e+07 3.41125e+07 -7.59928e+06)
(9.54083e+07 1.5216 1395.99 6.22781e+07 3.41127e+07 -7.59895e+06)
(9.54084e+07 0.966992 926.418 6.22781e+07 3.41128e+07 -7.59872e+06)
(9.54085e+07 0.665374 583.02 6.22781e+07 3.41129e+07 -7.59858e+06)
(9.54086e+07 0.39517 320.229 6.22781e+07 3.4113e+07 -7.59849e+06)
(9.54086e+07 0.146778 101.912 6.22781e+07 3.4113e+07 -7.59845e+06)
(9.54086e+07 -0.0975322 -102.202 6.22781e+07 3.4113e+07 -7.59845e+06)
(9.54086e+07 -0.355891 -320.432 6.22781e+07 3.4113e+07 -7.59849e+06)
(9.54085e+07 -0.643208 -583.065 6.22781e+07 3.41129e+07 -7.59858e+06)
(9.54084e+07 -0.963337 -926.266 6.22781e+07 3.41128e+07 -7.59872e+06)
(9.54083e+07 -1.53239 -1395.62 6.22781e+07 3.41127e+07 -7.59895e+06)
(9.54081e+07 -4.73873 -2046.4 6.22781e+07 3.41125e+07 -7.59929e+06)
(9.54079e+07 -19.5389 -2938.85 6.22782e+07 3.41122e+07 -7.59976e+06)
(9.54076e+07 -30.9224 -4164.28 6.22784e+07 3.41116e+07 -7.60039e+06)
(9.54068e+07 251.346 -6056.24 6.22784e+07 3.41111e+07 -7.60132e+06)
(9.54033e+07 1676.11 -9542.56 6.22744e+07 3.41146e+07 -7.60367e+06)
(9.53846e+07 -85.3363 -17156.3 6.22516e+07 3.41308e+07 -7.6079e+06)
(9.52503e+07 -50096.7 -78906.5 6.22104e+07 3.41008e+07 -7.62447e+06)
(9.38448e+07 -268430 -702022 6.20209e+07 3.35391e+07 -8.36813e+06)
(7.99865e+07 -449697 -4.08029e+06 5.74074e+07 3.13877e+07 -1.56736e+07)
(4.52674e+07 -598269 -2.41925e+07 5.48271e+07 3.00083e+07 5.52892e+06)
(4.97313e+07 933481 2.5023e+07 7.37998e+07 2.11868e+07 1.24328e+07)
(8.84193e+07 452117 4.22263e+06 7.80005e+07 2.18786e+07 -8.7315e+06)
(1.0327e+08 255603 763850 8.39981e+07 2.36068e+07 -761624)
(1.04814e+08 52522.6 84041 8.44295e+07 2.40596e+07 84152.8)
(1.04964e+08 1622.58 16398.2 8.44781e+07 2.40898e+07 104638)
(1.04982e+08 -1493.24 9444.5 8.44974e+07 2.40782e+07 107570)
(1.04986e+08 -279.878 6017.86 8.45011e+07 2.40754e+07 109673)
(1.04986e+08 21.1766 4087.7 8.45013e+07 2.40757e+07 110618)
(1.04987e+08 20.5807 2870.18 8.45013e+07 2.40762e+07 111257)
(1.04987e+08 6.36375 1996.84 8.45014e+07 2.40765e+07 111732)
(1.04987e+08 2.46389 1361.68 8.45014e+07 2.40766e+07 112066)
(1.04987e+08 1.50272 903.648 8.45015e+07 2.40767e+07 112291)
(1.04988e+08 0.982968 568.72 8.45015e+07 2.40768e+07 112437)
(1.04988e+08 0.567803 312.405 8.45015e+07 2.40768e+07 112525)
(1.04988e+08 0.204053 99.4479 8.45015e+07 2.40769e+07 112566)
(1.04988e+08 -0.14743 -99.6684 8.45015e+07 2.40769e+07 112566)
(1.04988e+08 -0.521951 -312.554 8.45015e+07 2.40768e+07 112525)
(1.04988e+08 -0.955247 -568.739 8.45015e+07 2.40768e+07 112437)
(1.04987e+08 -1.49364 -903.503 8.45015e+07 2.40767e+07 112291)
(1.04987e+08 -2.46785 -1361.35 8.45014e+07 2.40766e+07 112066)
(1.04987e+08 -6.37067 -1996.3 8.45014e+07 2.40765e+07 111732)
(1.04987e+08 -20.5836 -2869.42 8.45013e+07 2.40762e+07 111257)
(1.04986e+08 -21.176 -4086.68 8.45013e+07 2.40757e+07 110618)
(1.04986e+08 279.875 -6016.57 8.45011e+07 2.40754e+07 109673)
(1.04982e+08 1493.23 -9443.03 8.44974e+07 2.40782e+07 107571)
(1.04964e+08 -1622.58 -16396.7 8.44781e+07 2.40898e+07 104639)
(1.04814e+08 -52522.6 -84039.5 8.44295e+07 2.40596e+07 84153.1)
(1.0327e+08 -255603 -763848 8.39981e+07 2.36068e+07 -761625)
(8.84193e+07 -452118 -4.22262e+06 7.80005e+07 2.18786e+07 -8.73149e+06)
(4.97313e+07 -933481 -2.5023e+07 7.37998e+07 2.11868e+07 1.24328e+07)
(5.25949e+07 916907 2.60538e+07 8.55985e+07 1.36628e+07 1.84916e+07)
(9.38603e+07 395041 4.42927e+06 9.08504e+07 1.38601e+07 -3.12328e+06)
(1.09594e+08 212844 852151 9.7707e+07 1.51632e+07 5.46707e+06)
(1.11264e+08 46900.4 99733.3 9.83068e+07 1.55062e+07 6.4199e+06)
(1.11432e+08 2528.09 16735.9 9.83609e+07 1.55336e+07 6.44567e+06)
(1.11452e+08 -1138.76 9078.59 9.83769e+07 1.55263e+07 6.44719e+06)
(1.11455e+08 -265.657 5908.72 9.83802e+07 1.55243e+07 6.44898e+06)
(1.11456e+08 6.20301 4028.38 9.83806e+07 1.55245e+07 6.44993e+06)
(1.11457e+08 15.191 2821.48 9.83807e+07 1.55248e+07 6.45059e+06)
(1.11457e+08 4.38342 1960.15 9.83808e+07 1.5525e+07 6.45107e+06)
(1.11457e+08 1.18384 1336.08 9.83809e+07 1.55251e+07 6.45141e+06)
(1.11457e+08 0.574954 886.591 9.8381e+07 1.55252e+07 6.45163e+06)
(1.11458e+08 0.369522 558.007 9.8381e+07 1.55253e+07 6.45178e+06)
(1.11458e+08 0.223096 306.55 9.8381e+07 1.55253e+07 6.45187e+06)
(1.11458e+08 0.0921 97.6116 9.8381e+07 1.55253e+07 6.45191e+06)
(1.11458e+08 -0.0390455 -97.7597 9.8381e+07 1.55253e+07 6.45191e+06)
(1.11458e+08 -0.180154 -306.641 9.8381e+07 1.55253e+07 6.45187e+06)
(1.11458e+08 -0.343499 -557.995 9.8381e+07 1.55253e+07 6.45178e+06)
(1.11457e+08 -0.566148 -886.446 9.8381e+07 1.55252e+07 6.45163e+06)
(1.11457e+08 -1.18718 -1335.78 9.83809e+07 1.55251e+07 6.45141e+06)
(1.11457e+08 -4.39011 -1959.67 9.83808e+07 1.5525e+07 6.45107e+06)
(1.11457e+08 -15.195 -2820.78 9.83807e+07 1.55248e+07 6.45059e+06)
(1.11456e+08 -6.20446 -4027.43 9.83806e+07 1.55245e+07 6.44993e+06)
(1.11455e+08 265.653 -5907.51 9.83802e+07 1.55243e+07 6.44898e+06)
(1.11452e+08 1138.76 -9077.18 9.83769e+07 1.55263e+07 6.44719e+06)
(1.11432e+08 -2528.07 -16734.5 9.83609e+07 1.55336e+07 6.44567e+06)
(1.11264e+08 -46900.4 -99731.8 9.83068e+07 1.55062e+07 6.41991e+06)
(1.09594e+08 -212844 -852149 9.7707e+07 1.51632e+07 5.46707e+06)
(9.38603e+07 -395041 -4.42926e+06 9.08504e+07 1.38601e+07 -3.12328e+06)
(5.25949e+07 -916907 -2.60538e+07 8.55985e+07 1.36628e+07 1.84916e+07)
(5.41705e+07 722001 2.69569e+07 9.27531e+07 8.52805e+06 2.19836e+07)
(9.68978e+07 313549 4.63551e+06 9.86914e+07 8.47823e+06 -200514)
(1.13307e+08 165029 929447 1.06118e+08 9.4298e+06 8.83054e+06)
(1.15075e+08 38270.9 115700 1.06832e+08 9.68481e+06 9.85687e+06)
(1.1526e+08 2812.5 17646.7 1.06892e+08 9.70842e+06 9.88691e+06)
(1.15282e+08 -775.095 8722.89 1.06905e+08 9.70418e+06 9.88776e+06)
(1.15285e+08 -226.168 5777.72 1.06908e+08 9.70275e+06 9.88935e+06)
(1.15286e+08 -6.2343 3973.78 1.06909e+08 9.70287e+06 9.89028e+06)
(1.15287e+08 8.3186 2781.18 1.06909e+08 9.70312e+06 9.89094e+06)
(1.15287e+08 1.41801 1929.4 1.06909e+08 9.70327e+06 9.89141e+06)
(1.15287e+08 -0.632328 1314.34 1.06909e+08 9.70337e+06 9.89174e+06)
(1.15287e+08 -0.683001 872.019 1.06909e+08 9.70343e+06 9.89196e+06)
(1.15288e+08 -0.451774 548.839 1.06909e+08 9.70347e+06 9.89211e+06)
(1.15288e+08 -0.237974 301.536 1.06909e+08 9.70349e+06 9.89219e+06)
(1.15288e+08 -0.0591771 96.04 1.0691e+08 9.70351e+06 9.89223e+06)
(1.15288e+08 0.102875 -96.1232 1.0691e+08 9.70351e+06 9.89223e+06)
(1.15288e+08 0.273116 -301.576 1.06909e+08 9.70349e+06 9.89219e+06)
(1.15288e+08 0.47262 -548.799 1.06909e+08 9.70347e+06 9.89211e+06)
(1.15287e+08 0.689254 -871.874 1.06909e+08 9.70343e+06 9.89196e+06)
(1.15287e+08 0.627707 -1314.06 1.06909e+08 9.70337e+06 9.89174e+06)
(1.15287e+08 -1.42702 -1928.96 1.06909e+08 9.70327e+06 9.89141e+06)
(1.15287e+08 -8.32723 -2780.53 1.06909e+08 9.70312e+06 9.89094e+06)
(1.15286e+08 6.22744 -3972.89 1.06909e+08 9.70287e+06 9.89029e+06)
(1.15285e+08 226.161 -5776.57 1.06908e+08 9.70275e+06 9.88935e+06)
(1.15282e+08 775.095 -8721.53 1.06905e+08 9.70418e+06 9.88776e+06)
(1.1526e+08 -2812.48 -17645.3 1.06892e+08 9.70842e+06 9.88691e+06)
(1.15075e+08 -38270.9 -115698 1.06832e+08 9.68481e+06 9.85687e+06)
(1.13307e+08 -165030 -929445 1.06118e+08 9.4298e+06 8.83054e+06)
(9.68978e+07 -313549 -4.63551e+06 9.86914e+07 8.47823e+06 -200511)
(5.41705e+07 -722001 -2.69569e+07 9.27531e+07 8.52805e+06 2.19836e+07)
(5.50385e+07 498744 2.7621e+07 9.71315e+07 5.30338e+06 2.38535e+07)
(9.85814e+07 230544 4.80995e+06 1.03488e+08 5.17114e+06 1.19454e+06)
(1.15469e+08 122908 989834 1.11325e+08 5.84856e+06 1.05249e+07)
(1.17311e+08 29706.3 128970 1.12119e+08 6.03659e+06 1.15989e+07)
(1.17508e+08 2690.84 18742 1.12184e+08 6.05629e+06 1.16323e+07)
(1.17533e+08 -479.06 8459.33 1.12196e+08 6.05403e+06 1.16329e+07)
(1.17537e+08 -178.14 5652.1 1.12198e+08 6.05308e+06 1.16344e+07)
(1.17538e+08 -13.5131 3922.13 1.12199e+08 6.05317e+06 1.16353e+07)
(1.17538e+08 2.68042 2745.65 1.12199e+08 6.05335e+06 1.1636e+07)
(1.17538e+08 -1.02118 1902.42 1.12199e+08 6.05347e+06 1.16364e+07)
(1.17539e+08 -2.04192 1295.1 1.122e+08 6.05355e+06 1.16368e+07)
(1.17539e+08 -1.64424 859.07 1.122e+08 6.0536e+06 1.1637e+07)
(1.17539e+08 -1.08113 540.672 1.122e+08 6.05363e+06 1.16371e+07)
(1.17539e+08 -0.593454 297.065 1.122e+08 6.05365e+06 1.16372e+07)
(1.17539e+08 -0.177598 94.6365 1.122e+08 6.05365e+06 1.16372e+07)
(1.17539e+08 0.209713 -94.6653 1.122e+08 6.05365e+06 1.16372e+07)
(1.17539e+08 0.619029 -297.062 1.122e+08 6.05365e+06 1.16372e+07)
(1.17539e+08 1.09577 -540.61 1.122e+08 6.05363e+06 1.16371e+07)
(1.17539e+08 1.64771 -858.925 1.122e+08 6.0536e+06 1.1637e+07)
(1.17539e+08 2.03649 -1294.84 1.122e+08 6.05355e+06 1.16368e+07)
(1.17538e+08 1.01096 -1902.01 1.12199e+08 6.05347e+06 1.16364e+07)
(1.17538e+08 -2.69204 -2745.05 1.12199e+08 6.05335e+06 1.1636e+07)
(1.17538e+08 13.5027 -3921.29 1.12199e+08 6.05317e+06 1.16353e+07)
(1.17537e+08 178.133 -5651.01 1.12198e+08 6.05309e+06 1.16344e+07)
(1.17533e+08 479.06 -8458.01 1.12196e+08 6.05403e+06 1.16329e+07)
(1.17508e+08 -2690.82 -18740.5 1.12184e+08 6.0563e+06 1.16323e+07)
(1.17311e+08 -29706.3 -128968 1.12119e+08 6.03659e+06 1.15989e+07)
(1.15469e+08 -122908 -989832 1.11325e+08 5.84856e+06 1.05249e+07)
(9.85814e+07 -230544 -4.80995e+06 1.03488e+08 5.17114e+06 1.19454e+06)
(5.50385e+07 -498744 -2.7621e+07 9.71315e+07 5.30338e+06 2.38535e+07)
(5.55498e+07 317155 2.80609e+07 9.98533e+07 3.31525e+06 2.49061e+07)
(9.95607e+07 159217 4.94159e+06 1.06441e+08 3.18088e+06 1.91273e+06)
(1.16772e+08 89066.5 1.03529e+06 1.14583e+08 3.65122e+06 1.14451e+07)
(1.18666e+08 22404.7 139289 1.15436e+08 3.7883e+06 1.25508e+07)
(1.18874e+08 2366.68 19799.1 1.15505e+08 3.80436e+06 1.25868e+07)
(1.18901e+08 -268.02 8288.78 1.15516e+08 3.8033e+06 1.25875e+07)
(1.18905e+08 -132.492 5544.22 1.15518e+08 3.8027e+06 1.25889e+07)
(1.18905e+08 -16.182 3874.69 1.15519e+08 3.80277e+06 1.25898e+07)
(1.18906e+08 -1.00656 2714.11 1.15519e+08 3.80291e+06 1.25904e+07)
(1.18906e+08 -2.5237 1878.69 1.15519e+08 3.803e+06 1.25909e+07)
(1.18906e+08 -2.81682 1278.12 1.1552e+08 3.80306e+06 1.25912e+07)
(1.18907e+08 -2.1615 847.586 1.1552e+08 3.8031e+06 1.25914e+07)
(1.18907e+08 -1.42374 533.411 1.1552e+08 3.80313e+06 1.25915e+07)
(1.18907e+08 -0.790012 293.083 1.1552e+08 3.80314e+06 1.25916e+07)
(1.18907e+08 -0.245362 93.384 1.1552e+08 3.80315e+06 1.25916e+07)
(1.18907e+08 0.26559 -93.3701 1.1552e+08 3.80315e+06 1.25916e+07)
(1.18907e+08 0.805892 -293.046 1.1552e+08 3.80314e+06 1.25916e+07)
(1.18907e+08 1.43237 -533.331 1.1552e+08 3.80313e+06 1.25915e+07)
(1.18907e+08 2.1628 -847.442 1.1552e+08 3.8031e+06 1.25914e+07)
(1.18906e+08 2.81184 -1277.88 1.1552e+08 3.80306e+06 1.25912e+07)
(1.18906e+08 2.51446 -1878.31 1.15519e+08 3.803e+06 1.25909e+07)
(1.18906e+08 0.995044 -2713.55 1.15519e+08 3.80291e+06 1.25904e+07)
(1.18905e+08 16.1713 -3873.9 1.15519e+08 3.80277e+06 1.25898e+07)
(1.18905e+08 132.485 -5543.17 1.15518e+08 3.8027e+06 1.25889e+07)
(1.18901e+08 268.021 -8287.49 1.15516e+08 3.8033e+06 1.25875e+07)
(1.18874e+08 -2366.67 -19797.6 1.15505e+08 3.80436e+06 1.25868e+07)
(1.18666e+08 -22404.7 -139287 1.15436e+08 3.7883e+06 1.25508e+07)
(1.16772e+08 -89066.5 -1.03529e+06 1.14583e+08 3.65122e+06 1.14451e+07)
(9.95607e+07 -159217 -4.94159e+06 1.06441e+08 3.18089e+06 1.91273e+06)
(5.55498e+07 -317155 -2.80609e+07 9.98533e+07 3.31526e+06 2.49061e+07)
(5.58703e+07 191603 2.83337e+07 1.01563e+08 2.08084e+06 2.5541e+07)
(1.00158e+08 104629 5.03279e+06 1.08265e+08 1.97287e+06 2.33045e+06)
(1.17581e+08 63057.5 1.06874e+06 1.16631e+08 2.29175e+06 1.19972e+07)
(1.19512e+08 16567.6 147130 1.17528e+08 2.39008e+06 1.31248e+07)
(1.19727e+08 1973.22 20721 1.17601e+08 2.40286e+06 1.31628e+07)
(1.19756e+08 -131.022 8187.8 1.17612e+08 2.4025e+06 1.31636e+07)
(1.1976e+08 -94.3375 5457.26 1.17614e+08 2.40214e+06 1.3165e+07)
(1.19761e+08 -15.7877 3832.82 1.17615e+08 2.4022e+06 1.31659e+07)
(1.19761e+08 -2.96447 2686.51 1.17615e+08 2.40231e+06 1.31665e+07)
(1.19761e+08 -3.1901 1858.11 1.17615e+08 2.40238e+06 1.31669e+07)
(1.19761e+08 -3.04904 1263.35 1.17616e+08 2.40243e+06 1.31672e+07)
(1.19762e+08 -2.30119 837.568 1.17616e+08 2.40247e+06 1.31674e+07)
(1.19762e+08 -1.52103 527.061 1.17616e+08 2.40249e+06 1.31675e+07)
(1.19762e+08 -0.849756 289.595 1.17616e+08 2.4025e+06 1.31676e+07)
(1.19762e+08 -0.269056 92.2841 1.17616e+08 2.4025e+06 1.31676e+07)
(1.19762e+08 0.278153 -92.2387 1.17616e+08 2.4025e+06 1.31676e+07)
(1.19762e+08 0.856666 -289.534 1.17616e+08 2.4025e+06 1.31676e+07)
(1.19762e+08 1.52433 -526.969 1.17616e+08 2.40249e+06 1.31675e+07)
(1.19762e+08 2.30106 -837.425 1.17616e+08 2.40247e+06 1.31674e+07)
(1.19761e+08 3.04554 -1263.13 1.17616e+08 2.40243e+06 1.31672e+07)
(1.19761e+08 3.18353 -1857.76 1.17615e+08 2.40238e+06 1.31669e+07)
(1.19761e+08 2.95547 -2685.98 1.17615e+08 2.40231e+06 1.31665e+07)
(1.19761e+08 15.7792 -3832.07 1.17615e+08 2.4022e+06 1.31659e+07)
(1.1976e+08 94.3327 -5456.25 1.17614e+08 2.40214e+06 1.3165e+07)
(1.19756e+08 131.022 -8186.54 1.17612e+08 2.4025e+06 1.31636e+07)
(1.19727e+08 -1973.22 -20719.5 1.17601e+08 2.40286e+06 1.31628e+07)
(1.19512e+08 -16567.6 -147128 1.17528e+08 2.39008e+06 1.31248e+07)
(1.17581e+08 -63057.4 -1.06874e+06 1.16631e+08 2.29175e+06 1.19972e+07)
(1.00158e+08 -104628 -5.03278e+06 1.08265e+08 1.97287e+06 2.33045e+06)
(5.58703e+07 -191603 -2.83337e+07 1.01563e+08 2.08084e+06 2.5541e+07)
(5.60769e+07 112515 2.84967e+07 1.02639e+08 1.30587e+06 2.59378e+07)
(1.00531e+08 66237.3 5.09211e+06 1.09392e+08 1.22825e+06 2.59162e+06)
(1.1809e+08 43634.3 1.09277e+06 1.17919e+08 1.43987e+06 1.23462e+07)
(1.20046e+08 12026.5 153011 1.18849e+08 1.50904e+06 1.34888e+07)
(1.20267e+08 1580.46 21481.1 1.18926e+08 1.51893e+06 1.35284e+07)
(1.20296e+08 -49.1353 8132.22 1.18936e+08 1.51896e+06 1.35293e+07)
(1.203e+08 -64.8523 5389.9 1.18938e+08 1.51876e+06 1.35307e+07)
(1.20301e+08 -13.7617 3797.28 1.18939e+08 1.51881e+06 1.35315e+07)
(1.20302e+08 -3.67523 2662.94 1.18939e+08 1.5189e+06 1.35321e+07)
(1.20302e+08 -3.25619 1840.65 1.18939e+08 1.51896e+06 1.35326e+07)
(1.20302e+08 -2.90517 1250.81 1.18939e+08 1.519e+06 1.35328e+07)
(1.20302e+08 -2.17882 829.033 1.18939e+08 1.51902e+06 1.3533e+07)
(1.20302e+08 -1.44626 521.639 1.1894e+08 1.51904e+06 1.35332e+07)
(1.20302e+08 -0.812732 286.612 1.1894e+08 1.51905e+06 1.35333e+07)
(1.20302e+08 -0.26121 91.3408 1.1894e+08 1.51905e+06 1.35333e+07)
(1.20302e+08 0.260476 -91.274 1.1894e+08 1.51905e+06 1.35333e+07)
(1.20302e+08 0.811811 -286.534 1.1894e+08 1.51905e+06 1.35333e+07)
(1.20302e+08 1.44511 -521.538 1.1894e+08 1.51904e+06 1.35332e+07)
(1.20302e+08 2.17792 -828.892 1.18939e+08 1.51902e+06 1.3533e+07)
(1.20302e+08 2.90381 -1250.6 1.18939e+08 1.519e+06 1.35328e+07)
(1.20302e+08 3.25327 -1840.32 1.18939e+08 1.51896e+06 1.35326e+07)
(1.20302e+08 3.67012 -2662.44 1.18939e+08 1.5189e+06 1.35321e+07)
(1.20301e+08 13.7567 -3796.56 1.18939e+08 1.51881e+06 1.35315e+07)
(1.203e+08 64.8503 -5388.92 1.18938e+08 1.51876e+06 1.35307e+07)
(1.20296e+08 49.1364 -8130.98 1.18936e+08 1.51896e+06 1.35293e+07)
(1.20267e+08 -1580.46 -21479.6 1.18926e+08 1.51893e+06 1.35284e+07)
(1.20046e+08 -12026.5 -153009 1.18849e+08 1.50904e+06 1.34888e+07)
(1.1809e+08 -43634.3 -1.09277e+06 1.17919e+08 1.43987e+06 1.23462e+07)
(1.00531e+08 -66237.3 -5.09211e+06 1.09392e+08 1.22825e+06 2.59162e+06)
(5.60769e+07 -112515 -2.84967e+07 1.02639e+08 1.30587e+06 2.59378e+07)
(5.62099e+07 65242.5 2.85923e+07 1.03314e+08 815056 2.61865e+07)
(1.00766e+08 40797 5.12902e+06 1.10087e+08 762830 2.75729e+06)
(1.1841e+08 29451.3 1.10956e+06 1.18725e+08 900430 1.25682e+07)
(1.20382e+08 8532.31 157349 1.19679e+08 947969 1.37209e+07)
(1.20607e+08 1218.28 22083.6 1.19759e+08 955384 1.37618e+07)
(1.20637e+08 -4.91626 8103.91 1.19769e+08 955595 1.37628e+07)
(1.20642e+08 -43.1818 5339.19 1.19771e+08 955492 1.37642e+07)
(1.20642e+08 -11.0892 3768.25 1.19772e+08 955537 1.3765e+07)
(1.20643e+08 -3.59236 2643.46 1.19772e+08 955603 1.37656e+07)
(1.20643e+08 -2.9423 1826.27 1.19772e+08 955650 1.3766e+07)
(1.20643e+08 -2.53201 1240.48 1.19772e+08 955682 1.37663e+07)
(1.20643e+08 -1.89555 821.979 1.19772e+08 955702 1.37665e+07)
(1.20644e+08 -1.26402 517.147 1.19772e+08 955714 1.37666e+07)
(1.20644e+08 -0.71442 284.137 1.19772e+08 955722 1.37667e+07)
(1.20644e+08 -0.233001 90.5559 1.19772e+08 955725 1.37667e+07)
(1.20644e+08 0.224054 -90.4763 1.19772e+08 955725 1.37667e+07)
(1.20644e+08 0.707037 -284.049 1.19772e+08 955721 1.37667e+07)
(1.20644e+08 1.25936 -517.043 1.19772e+08 955714 1.37666e+07)
(1.20643e+08 1.89435 -821.84 1.19772e+08 955701 1.37665e+07)
(1.20643e+08 2.53294 -1240.27 1.19772e+08 955681 1.37663e+07)
(1.20643e+08 2.94318 -1825.96 1.19772e+08 955650 1.3766e+07)
(1.20643e+08 3.59141 -2642.98 1.19772e+08 955603 1.37656e+07)
(1.20642e+08 11.0879 -3767.55 1.19772e+08 955537 1.3765e+07)
(1.20642e+08 43.1823 -5338.24 1.19771e+08 955492 1.37642e+07)
(1.20637e+08 4.91804 -8102.69 1.19769e+08 955595 1.37628e+07)
(1.20607e+08 -1218.27 -22082.1 1.19759e+08 955384 1.37618e+07)
(1.20382e+08 -8532.31 -157347 1.19679e+08 947970 1.37209e+07)
(1.1841e+08 -29451.3 -1.10956e+06 1.18725e+08 900431 1.25682e+07)
(1.00766e+08 -40797 -5.12901e+06 1.10087e+08 762831 2.7573e+06)
(5.62099e+07 -65242.5 -2.85923e+07 1.03314e+08 815058 2.61865e+07)
(5.62942e+07 37548.5 2.86479e+07 1.03733e+08 501101 2.63402e+07)
(1.00911e+08 24516.6 5.15125e+06 1.10511e+08 467656 2.8608e+06)
(1.18609e+08 19245.1 1.12091e+06 1.19224e+08 554865 1.27071e+07)
(1.20591e+08 5848.38 160459 1.20196e+08 586505 1.38666e+07)
(1.20819e+08 895.226 22542.2 1.20277e+08 591822 1.39084e+07)
(1.2085e+08 14.8463 8091 1.20288e+08 592084 1.39095e+07)
(1.20854e+08 -27.7247 5302.18 1.2029e+08 592040 1.39109e+07)
(1.20855e+08 -8.32322 3745.58 1.2029e+08 592078 1.39117e+07)
(1.20856e+08 -3.05123 2628.04 1.2029e+08 592127 1.39123e+07)
(1.20856e+08 -2.40935 1814.92 1.20291e+08 592163 1.39127e+07)
(1.20856e+08 -2.03241 1232.3 1.20291e+08 592187 1.3913e+07)
(1.20856e+08 -1.52236 816.388 1.20291e+08 592202 1.39131e+07)
(1.20856e+08 -1.02008 513.581 1.20291e+08 592212 1.39133e+07)
(1.20856e+08 -0.580134 282.168 1.20291e+08 592217 1.39133e+07)
(1.20857e+08 -0.192429 89.9299 1.20291e+08 592220 1.39134e+07)
(1.20857e+08 0.177108 -89.8441 1.20291e+08 592220 1.39134e+07)
(1.20856e+08 0.567809 -282.076 1.20291e+08 592217 1.39133e+07)
(1.20856e+08 1.01288 -513.475 1.20291e+08 592211 1.39133e+07)
(1.20856e+08 1.52119 -816.25 1.20291e+08 592202 1.39131e+07)
(1.20856e+08 2.03546 -1232.1 1.20291e+08 592186 1.3913e+07)
(1.20856e+08 2.41359 -1814.61 1.20291e+08 592163 1.39127e+07)
(1.20856e+08 3.0539 -2627.58 1.2029e+08 592127 1.39123e+07)
(1.20855e+08 8.32493 -3744.91 1.2029e+08 592078 1.39117e+07)
(1.20854e+08 27.7269 -5301.24 1.2029e+08 592040 1.39109e+07)
(1.2085e+08 -14.8447 -8089.8 1.20288e+08 592085 1.39095e+07)
(1.20819e+08 -895.227 -22540.8 1.20277e+08 591822 1.39084e+07)
(1.20591e+08 -5848.38 -160457 1.20196e+08 586505 1.38666e+07)
(1.18609e+08 -19245.1 -1.12091e+06 1.19224e+08 554866 1.27071e+07)
(1.00911e+08 -24516.6 -5.15125e+06 1.10511e+08 467657 2.8608e+06)
(5.62942e+07 -37548.6 -2.86479e+07 1.03733e+08 501104 2.63402e+07)
(5.63458e+07 21094.9 2.86799e+07 1.03987e+08 296007 2.64325e+07)
(1.00999e+08 14151.6 5.16423e+06 1.10765e+08 275822 2.92338e+06)
(1.1873e+08 11891.9 1.12824e+06 1.19526e+08 328497 1.27912e+07)
(1.20718e+08 3765.8 162581 1.20509e+08 348380 1.39552e+07)
(1.20948e+08 609.292 22871.4 1.20592e+08 351927 1.39976e+07)
(1.20979e+08 19.3335 8086.15 1.20603e+08 352160 1.39988e+07)
(1.20984e+08 -16.8058 5276.42 1.20605e+08 352146 1.40001e+07)
(1.20985e+08 -5.711 3728.97 1.20605e+08 352175 1.40009e+07)
(1.20985e+08 -2.272 2616.61 1.20605e+08 352209 1.40015e+07)
(1.20985e+08 -1.76305 1806.49 1.20606e+08 352234 1.40019e+07)
(1.20986e+08 -1.47133 1226.24 1.20606e+08 352251 1.40022e+07)
(1.20986e+08 -1.10422 812.231 1.20606e+08 352262 1.40024e+07)
(1.20986e+08 -0.743822 510.924 1.20606e+08 352268 1.40025e+07)
(1.20986e+08 -0.42626 280.7 1.20606e+08 352272 1.40026e+07)
(1.20986e+08 -0.144708 89.4616 1.20606e+08 352274 1.40026e+07)
(1.20986e+08 0.124941 -89.3741 1.20606e+08 352274 1.40026e+07)
(1.20986e+08 0.410562 -280.607 1.20606e+08 352272 1.40026e+07)
(1.20986e+08 0.735017 -510.818 1.20606e+08 352268 1.40025e+07)
(1.20986e+08 1.10327 -812.094 1.20606e+08 352261 1.40024e+07)
(1.20986e+08 1.476 -1226.04 1.20606e+08 352250 1.40022e+07)
(1.20985e+08 1.7697 -1806.19 1.20606e+08 352234 1.40019e+07)
(1.20985e+08 2.27711 -2616.15 1.20605e+08 352209 1.40015e+07)
(1.20985e+08 5.71439 -3728.31 1.20605e+08 352175 1.40009e+07)
(1.20984e+08 16.8082 -5275.5 1.20605e+08 352146 1.40001e+07)
(1.20979e+08 -19.3332 -8084.96 1.20603e+08 352160 1.39988e+07)
(1.20948e+08 -609.295 -22870 1.20592e+08 351927 1.39976e+07)
(1.20718e+08 -3765.81 -162579 1.20509e+08 348380 1.39552e+07)
(1.1873e+08 -11891.9 -1.12823e+06 1.19526e+08 328497 1.27912e+07)
(1.00999e+08 -14151.6 -5.16423e+06 1.10765e+08 275823 2.92338e+06)
(5.63458e+07 -21094.9 -2.86799e+07 1.03987e+08 296009 2.64325e+07)
(5.63752e+07 10717 2.86974e+07 1.04131e+08 155265 2.64843e+07)
(1.01049e+08 7293.77 5.17135e+06 1.10908e+08 144563 2.95859e+06)
(1.18798e+08 6426.65 1.13257e+06 1.19696e+08 172609 1.28388e+07)
(1.2079e+08 2097.84 163894 1.20687e+08 183496 1.40053e+07)
(1.21021e+08 352.954 23083.4 1.20771e+08 185521 1.40481e+07)
(1.21053e+08 14.7634 8084.95 1.20782e+08 185677 1.40493e+07)
(1.21057e+08 -8.91924 5260.18 1.20783e+08 185676 1.40507e+07)
(1.21058e+08 -3.3076 3718.1 1.20784e+08 185694 1.40515e+07)
(1.21058e+08 -1.38228 2609.05 1.20784e+08 185714 1.40521e+07)
(1.21059e+08 -1.06444 1800.93 1.20784e+08 185729 1.40525e+07)
(1.21059e+08 -0.884396 1222.22 1.20785e+08 185739 1.40527e+07)
(1.21059e+08 -0.666168 809.477 1.20785e+08 185746 1.40529e+07)
(1.21059e+08 -0.452045 509.162 1.20785e+08 185750 1.40531e+07)
(1.21059e+08 -0.262335 279.725 1.20785e+08 185752 1.40531e+07)
(1.21059e+08 -0.0928638 89.1498 1.20785e+08 185753 1.40532e+07)
(1.21059e+08 0.0707215 -89.063 1.20785e+08 185753 1.40532e+07)
(1.21059e+08 0.24493 -279.632 1.20785e+08 185752 1.40531e+07)
(1.21059e+08 0.442578 -509.057 1.20785e+08 185749 1.40531e+07)
(1.21059e+08 0.665525 -809.342 1.20785e+08 185745 1.40529e+07)
(1.21059e+08 0.889967 -1222.03 1.20785e+08 185739 1.40527e+07)
(1.21059e+08 1.07219 -1800.63 1.20784e+08 185729 1.40525e+07)
(1.21058e+08 1.3882 -2608.61 1.20784e+08 185714 1.40521e+07)
(1.21058e+08 3.31089 -3717.46 1.20784e+08 185694 1.40515e+07)
(1.21057e+08 8.92004 -5259.27 1.20783e+08 185676 1.40507e+07)
(1.21053e+08 -14.7662 -8083.79 1.20782e+08 185677 1.40493e+07)
(1.21021e+08 -352.961 -23082.1 1.20771e+08 185522 1.40481e+07)
(1.2079e+08 -2097.84 -163893 1.20687e+08 183496 1.40053e+07)
(1.18798e+08 -6426.66 -1.13257e+06 1.19696e+08 172609 1.28388e+07)
(1.01049e+08 -7293.76 -5.17135e+06 1.10908e+08 144564 2.95859e+06)
(5.63752e+07 -10717 -2.86974e+07 1.04131e+08 155268 2.64843e+07)
(5.63885e+07 3281.2 2.87051e+07 1.04195e+08 48262.2 2.65075e+07)
(1.01072e+08 2246.24 5.17449e+06 1.10972e+08 44918.9 2.97438e+06)
(1.18828e+08 2027.77 1.13458e+06 1.19773e+08 53703.1 1.28601e+07)
(1.20823e+08 672.729 164520 1.20767e+08 57163.4 1.40279e+07)
(1.21054e+08 115.541 23187.2 1.20852e+08 57821.5 1.40709e+07)
(1.21086e+08 5.4478 8084.92 1.20862e+08 57876.2 1.40721e+07)
(1.2109e+08 -2.76171 5252.32 1.20864e+08 57877.1 1.40735e+07)
(1.21091e+08 -1.06501 3712.74 1.20865e+08 57883.4 1.40743e+07)
(1.21092e+08 -0.450686 2605.3 1.20865e+08 57890.3 1.40748e+07)
(1.21092e+08 -0.34682 1798.16 1.20865e+08 57895.4 1.40752e+07)
(1.21092e+08 -0.289729 1220.23 1.20865e+08 57898.8 1.40755e+07)
(1.21092e+08 -0.221302 808.104 1.20865e+08 57901 1.40757e+07)
(1.21092e+08 -0.153988 508.282 1.20865e+08 57902.4 1.40758e+07)
(1.21092e+08 -0.09379 279.237 1.20866e+08 57903.1 1.40759e+07)
(1.21092e+08 -0.0386825 88.9935 1.20866e+08 57903.4 1.40759e+07)
(1.21092e+08 0.0162047 -88.9074 1.20866e+08 57903.3 1.40759e+07)
(1.21092e+08 0.0763012 -279.145 1.20866e+08 57902.8 1.40759e+07)
(1.21092e+08 0.14473 -508.177 1.20865e+08 57901.9 1.40758e+07)
(1.21092e+08 0.220919 -807.969 1.20865e+08 57900.5 1.40757e+07)
(1.21092e+08 0.295278 -1220.03 1.20865e+08 57898.4 1.40755e+07)
(1.21092e+08 0.354096 -1797.87 1.20865e+08 57895.1 1.40752e+07)
(1.21092e+08 0.455453 -2604.86 1.20865e+08 57890.1 1.40748e+07)
(1.21091e+08 1.06609 -3712.11 1.20865e+08 57883.3 1.40743e+07)
(1.2109e+08 2.75889 -5251.44 1.20864e+08 57877.1 1.40735e+07)
(1.21086e+08 -5.45545 -8083.78 1.20862e+08 57876.3 1.40721e+07)
(1.21054e+08 -115.554 -23185.8 1.20852e+08 57821.8 1.40709e+07)
(1.20823e+08 -672.74 -164519 1.20767e+08 57163.8 1.40279e+07)