/*--------------------------------*- C++ -*----------------------------------*\
| =========                 |                                                 |
| \\      /  F ield         | OpenFOAM: The Open Source CFD Toolbox           |
|  \\    /   O peration     | Version:  2106                                  |
|   \\  /    A nd           | Website:  www.openfoam.com                      |
|    \\/     M anipulation  |                                                 |
\*---------------------------------------------------------------------------*/
FoamFile
{
    version     2.0;
    format      ascii;
    arch        "LSB;label=32;scalar=64";
    class       volTensorField;
    location    "141";
    object      testEpsilon;
}
// * * * * * * * * * * * * * * * * * * * * * * * * * * * * * * * * * * * * * //

dimensions      [0 0 0 0 0 0 0];

internalField   nonuniform List<tensor> 
9000
(
(-0.0857612 0.00379984 -0.105888 -0.00437483 -0.147575 -0.259052 0.202556 0.382582 -0.0243415)
(-0.0168255 0.00364946 -0.00288945 -0.00258683 -0.156736 -0.271235 0.0217167 0.401861 -0.0691356)
(-0.00193715 0.00249228 0.00205381 -0.00181856 -0.166702 -0.288024 0.00307853 0.426751 -0.0587887)
(-0.000320792 0.000474407 0.000329748 -0.000371692 -0.168331 -0.291806 0.000548489 0.432316 -0.0566462)
(-5.47374e-05 8.29552e-06 1.54404e-06 -9.95427e-06 -0.168428 -0.291969 9.01354e-05 0.432552 -0.0566328)
(-5.83695e-06 -1.29069e-05 -7.29209e-06 9.94636e-06 -0.168415 -0.291878 2.9543e-05 0.432419 -0.056689)
(-5.66885e-07 -1.49562e-06 -5.28025e-07 1.23874e-06 -0.168413 -0.291863 2.23418e-05 0.432397 -0.0566954)
(-5.86051e-07 8.9162e-07 6.8723e-07 -7.46709e-07 -0.168415 -0.291868 1.71959e-05 0.432403 -0.0566913)
(-5.64814e-07 7.00097e-07 5.34479e-07 -6.11201e-07 -0.168417 -0.291872 1.2328e-05 0.43241 -0.0566878)
(-4.29441e-07 4.33609e-07 3.48542e-07 -3.86095e-07 -0.168418 -0.291875 8.55951e-06 0.432414 -0.0566855)
(-3.08796e-07 2.84729e-07 2.32478e-07 -2.5444e-07 -0.168419 -0.291877 5.82948e-06 0.432416 -0.056684)
(-2.22715e-07 1.88864e-07 1.54072e-07 -1.68645e-07 -0.168419 -0.291878 3.86865e-06 0.432418 -0.0566829)
(-1.65591e-07 1.19167e-07 9.70452e-08 -1.06326e-07 -0.168419 -0.291879 2.43493e-06 0.432419 -0.0566823)
(-1.31097e-07 6.55413e-08 5.33434e-08 -5.84563e-08 -0.16842 -0.291879 1.33743e-06 0.43242 -0.0566818)
(-1.14918e-07 2.09141e-08 1.70162e-08 -1.86635e-08 -0.16842 -0.291879 4.25591e-07 0.43242 -0.0566817)
(-1.14893e-07 -2.08282e-08 -1.69562e-08 1.85391e-08 -0.16842 -0.291879 -4.26915e-07 0.43242 -0.0566817)
(-1.31027e-07 -6.54457e-08 -5.32687e-08 5.83207e-08 -0.16842 -0.291879 -1.33833e-06 0.43242 -0.0566818)
(-1.65485e-07 -1.19046e-07 -9.69371e-08 1.06159e-07 -0.168419 -0.291879 -2.43505e-06 0.432419 -0.0566823)
(-2.22583e-07 -1.88682e-07 -1.53897e-07 1.684e-07 -0.168419 -0.291878 -3.86774e-06 0.432418 -0.0566829)
(-3.08644e-07 -2.84433e-07 -2.32189e-07 2.54046e-07 -0.168419 -0.291877 -5.82739e-06 0.432416 -0.056684)
(-4.29279e-07 -4.3313e-07 -3.48078e-07 3.85469e-07 -0.168418 -0.291875 -8.55616e-06 0.432414 -0.0566855)
(-5.64659e-07 -6.99421e-07 -5.33832e-07 6.10338e-07 -0.168417 -0.291872 -1.23234e-05 0.43241 -0.0566878)
(-5.85922e-07 -8.90831e-07 -6.86491e-07 7.45741e-07 -0.168415 -0.291868 -1.719e-05 0.432403 -0.0566913)
(-5.66796e-07 1.49636e-06 5.28698e-07 -1.23959e-06 -0.168413 -0.291863 -2.23349e-05 0.432397 -0.0566953)
(-5.8369e-06 1.29075e-05 7.29267e-06 -9.94705e-06 -0.168415 -0.291878 -2.95355e-05 0.432419 -0.056689)
(-5.47375e-05 -8.29483e-06 -1.54329e-06 9.95348e-06 -0.168428 -0.291969 -9.01279e-05 0.432552 -0.0566328)
(-0.000320792 -0.000474406 -0.000329747 0.000371691 -0.168331 -0.291807 -0.000548483 0.432316 -0.0566461)
(-0.00193715 -0.00249228 -0.00205381 0.00181856 -0.166702 -0.288024 -0.00307852 0.426751 -0.0587887)
(-0.0168255 -0.00364946 0.00288945 0.00258683 -0.156736 -0.271236 -0.0217167 0.401861 -0.0691356)
(-0.0857612 -0.00379985 0.105888 0.00437484 -0.147575 -0.259052 -0.202556 0.382582 -0.0243416)
(-0.0723939 0.00190356 -0.103555 -0.0019756 -0.0984985 -0.0795552 0.196874 0.216403 -0.128773)
(-0.0164451 0.00214761 -0.0042663 -0.0007923 -0.103394 -0.082912 0.0203777 0.226813 -0.174923)
(-0.00181169 0.00153781 0.000984375 -0.000671261 -0.10945 -0.0879787 0.0020859 0.240901 -0.171198)
(-0.000207421 0.000319373 0.000120486 -0.000177012 -0.110638 -0.0891697 0.00030617 0.24439 -0.170488)
(-2.71166e-05 4.29149e-06 -2.5894e-06 -9.63864e-06 -0.110676 -0.089224 7.82702e-05 0.244539 -0.170529)
(-4.57436e-06 -1.04014e-05 -1.71183e-06 4.70579e-06 -0.110652 -0.0891954 3.55295e-05 0.244441 -0.17055)
(-1.32711e-06 -1.3961e-06 3.23515e-08 7.17575e-07 -0.110649 -0.0891904 2.307e-05 0.244423 -0.170552)
(-7.37226e-07 5.63839e-07 1.97847e-07 -4.57651e-07 -0.110651 -0.0891919 1.65022e-05 0.244427 -0.17055)
(-5.38658e-07 4.52457e-07 1.48607e-07 -4.12058e-07 -0.110652 -0.0891934 1.17351e-05 0.24443 -0.170549)
(-3.99685e-07 2.69509e-07 1.01468e-07 -2.71478e-07 -0.110653 -0.0891942 8.16629e-06 0.244433 -0.170548)
(-2.8984e-07 1.74055e-07 6.83716e-08 -1.80226e-07 -0.110653 -0.0891948 5.56672e-06 0.244434 -0.170547)
(-2.09698e-07 1.15154e-07 4.50386e-08 -1.19263e-07 -0.110654 -0.0891952 3.69431e-06 0.244435 -0.170547)
(-1.55916e-07 7.26196e-08 2.81865e-08 -7.50567e-08 -0.110654 -0.0891955 2.32503e-06 0.244436 -0.170547)
(-1.23406e-07 3.99227e-08 1.54252e-08 -4.11996e-08 -0.110654 -0.0891956 1.27703e-06 0.244436 -0.170546)
(-1.08165e-07 1.27469e-08 4.89324e-09 -1.31086e-08 -0.110654 -0.0891957 4.06363e-07 0.244436 -0.170546)
(-1.08143e-07 -1.26603e-08 -4.93176e-09 1.31288e-08 -0.110654 -0.0891957 -4.07637e-07 0.244436 -0.170546)
(-1.23343e-07 -3.98384e-08 -1.54554e-08 4.11942e-08 -0.110654 -0.0891956 -1.27791e-06 0.244436 -0.170546)
(-1.55823e-07 -7.25336e-08 -2.82029e-08 7.49995e-08 -0.110654 -0.0891955 -2.32521e-06 0.244436 -0.170547)
(-2.09588e-07 -1.15047e-07 -4.50411e-08 1.19122e-07 -0.110654 -0.0891952 -3.69359e-06 0.244435 -0.170547)
(-2.89723e-07 -1.73892e-07 -6.83647e-08 1.79965e-07 -0.110653 -0.0891948 -5.565e-06 0.244434 -0.170547)
(-3.99562e-07 -2.69245e-07 -1.01455e-07 2.71065e-07 -0.110653 -0.0891943 -8.16352e-06 0.244433 -0.170548)
(-5.3853e-07 -4.5208e-07 -1.48585e-07 4.11501e-07 -0.110652 -0.0891934 -1.17313e-05 0.24443 -0.170549)
(-7.37098e-07 -5.63394e-07 -1.97805e-07 4.5703e-07 -0.110651 -0.0891919 -1.64973e-05 0.244427 -0.17055)
(-1.327e-06 1.39652e-06 -3.22768e-08 -7.18147e-07 -0.110649 -0.0891904 -2.3064e-05 0.244423 -0.170552)
(-4.57432e-06 1.04018e-05 1.71193e-06 -4.70631e-06 -0.110652 -0.0891954 -3.55228e-05 0.244441 -0.17055)
(-2.71167e-05 -4.29115e-06 2.58946e-06 9.63799e-06 -0.110676 -0.089224 -7.82635e-05 0.244539 -0.170529)
(-0.000207421 -0.000319373 -0.000120486 0.000177012 -0.110638 -0.0891698 -0.000306164 0.24439 -0.170488)
(-0.00181168 -0.00153781 -0.000984375 0.000671262 -0.10945 -0.0879787 -0.00208589 0.240901 -0.171198)
(-0.0164451 -0.00214761 0.0042663 0.000792301 -0.103394 -0.082912 -0.0203777 0.226813 -0.174923)
(-0.0723939 -0.00190357 0.103555 0.00197561 -0.0984985 -0.0795552 -0.196874 0.216403 -0.128773)
(-0.076303 -0.00105386 -0.10436 0.00337335 -0.0577716 -0.00941794 0.198154 0.12576 -0.153336)
(-0.0165647 0.00145922 -0.00457415 0.000284259 -0.0603342 -0.0111859 0.0203935 0.132876 -0.202002)
(-0.0018141 0.00104356 0.000802256 -2.85658e-06 -0.0635047 -0.0117018 0.00191949 0.141733 -0.199954)
(-0.000188468 0.000229236 8.06882e-05 -3.50118e-05 -0.0642364 -0.0118618 0.000225238 0.144071 -0.199611)
(-1.83939e-05 5.36962e-06 -3.58081e-06 -5.0389e-06 -0.0642467 -0.0118718 7.01017e-05 0.144197 -0.199669)
(-3.76571e-06 -7.65031e-06 -5.77483e-07 1.15194e-06 -0.064224 -0.0118674 3.75801e-05 0.14413 -0.199683)
(-1.59957e-06 -1.19825e-06 1.57731e-07 2.23721e-07 -0.0642209 -0.0118666 2.33277e-05 0.144116 -0.199683)
(-8.11978e-07 3.665e-07 1.02202e-07 -2.46662e-07 -0.0642218 -0.0118669 1.6047e-05 0.144118 -0.199682)
(-5.2758e-07 3.14389e-07 7.18706e-08 -2.38696e-07 -0.0642225 -0.0118671 1.13253e-05 0.14412 -0.199681)
(-3.83074e-07 1.83908e-07 5.23888e-08 -1.656e-07 -0.0642229 -0.0118672 7.88381e-06 0.144121 -0.19968)
(-2.78353e-07 1.17153e-07 3.58727e-08 -1.11253e-07 -0.0642232 -0.0118673 5.3764e-06 0.144122 -0.19968)
(-2.01682e-07 7.72793e-08 2.3523e-08 -7.35302e-08 -0.0642234 -0.0118674 3.5682e-06 0.144123 -0.19968)
(-1.49978e-07 4.87258e-08 1.46495e-08 -4.61461e-08 -0.0642235 -0.0118674 2.24572e-06 0.144123 -0.199679)
(-1.18708e-07 2.6791e-08 7.9961e-09 -2.52589e-08 -0.0642236 -0.0118675 1.23353e-06 0.144124 -0.199679)
(-1.04052e-07 8.5618e-09 2.5292e-09 -7.99274e-09 -0.0642236 -0.0118675 3.92582e-07 0.144124 -0.199679)
(-1.04033e-07 -8.48221e-09 -2.56483e-09 8.10407e-09 -0.0642236 -0.0118675 -3.93674e-07 0.144124 -0.199679)
(-1.18653e-07 -2.67182e-08 -8.02676e-09 2.53384e-08 -0.0642236 -0.0118675 -1.23429e-06 0.144124 -0.199679)
(-1.49899e-07 -4.86608e-08 -1.46731e-08 4.6167e-08 -0.0642235 -0.0118674 -2.24587e-06 0.144123 -0.199679)
(-2.0159e-07 -7.72091e-08 -2.35439e-08 7.34743e-08 -0.0642234 -0.0118674 -3.56759e-06 0.144123 -0.19968)
(-2.78256e-07 -1.17053e-07 -3.59002e-08 1.11112e-07 -0.0642232 -0.0118673 -5.37494e-06 0.144122 -0.19968)
(-3.82972e-07 -1.83748e-07 -5.2431e-08 1.65375e-07 -0.0642229 -0.0118672 -7.88146e-06 0.144121 -0.19968)
(-5.27466e-07 -3.14157e-07 -7.19245e-08 2.38404e-07 -0.0642225 -0.0118671 -1.1322e-05 0.14412 -0.199681)
(-8.11852e-07 -3.66221e-07 -1.02244e-07 2.46335e-07 -0.0642218 -0.0118669 -1.60427e-05 0.144118 -0.199682)
(-1.59946e-06 1.19852e-06 -1.57734e-07 -2.24047e-07 -0.0642209 -0.0118666 -2.33223e-05 0.144116 -0.199683)
(-3.76568e-06 7.65054e-06 5.77488e-07 -1.15226e-06 -0.064224 -0.0118674 -3.7574e-05 0.14413 -0.199683)
(-1.83939e-05 -5.36943e-06 3.58068e-06 5.03858e-06 -0.0642468 -0.0118718 -7.00956e-05 0.144197 -0.199669)
(-0.000188467 -0.000229236 -8.06885e-05 3.50116e-05 -0.0642364 -0.0118618 -0.000225232 0.144071 -0.199611)
(-0.00181409 -0.00104356 -0.000802255 2.85674e-06 -0.0635047 -0.0117018 -0.00191948 0.141733 -0.199954)
(-0.0165647 -0.00145922 0.00457415 -0.000284259 -0.0603342 -0.0111859 -0.0203935 0.132876 -0.202002)
(-0.076303 0.00105386 0.10436 -0.00337335 -0.0577716 -0.00941794 -0.198154 0.12576 -0.153336)
(-0.081908 -0.00281211 -0.10796 0.00643122 -0.0352511 0.00547207 0.204975 0.0766693 -0.154211)
(-0.0171204 0.00100098 -0.00472307 0.000751881 -0.0373172 0.00345892 0.0210942 0.0813646 -0.205447)
(-0.00187554 0.000757365 0.000849209 0.000233606 -0.0392335 0.00393912 0.00211224 0.0875846 -0.20354)
(-0.000207858 0.00017097 8.64844e-05 3.26598e-05 -0.0397232 0.00401698 0.000239342 0.0892622 -0.203227)
(-1.98839e-05 6.77195e-06 -3.72008e-06 -4.81203e-07 -0.039732 0.00401754 6.72959e-05 0.0893787 -0.20329)
(-3.52183e-06 -5.22655e-06 -6.79609e-07 -5.62731e-07 -0.0397136 0.0040161 3.72959e-05 0.0893353 -0.203303)
(-1.60683e-06 -9.56502e-07 1.47194e-07 -1.28587e-07 -0.0397106 0.00401588 2.31841e-05 0.0893245 -0.203303)
(-8.2971e-07 2.36437e-07 1.02651e-07 -1.54335e-07 -0.0397112 0.00401589 1.57453e-05 0.0893257 -0.203303)
(-5.22445e-07 2.24314e-07 7.18119e-08 -1.44523e-07 -0.0397117 0.00401591 1.10559e-05 0.0893275 -0.203302)
(-3.74196e-07 1.31504e-07 5.20017e-08 -1.06832e-07 -0.039712 0.00401592 7.68973e-06 0.0893285 -0.203301)
(-2.71426e-07 8.29097e-08 3.55691e-08 -7.33572e-08 -0.0397121 0.00401592 5.24366e-06 0.0893291 -0.203301)
(-1.96676e-07 5.44232e-08 2.33535e-08 -4.85972e-08 -0.0397122 0.00401592 3.48009e-06 0.0893296 -0.203301)
(-1.46262e-07 3.42585e-08 1.45723e-08 -3.04476e-08 -0.0397123 0.00401592 2.19036e-06 0.0893299 -0.203301)
(-1.15775e-07 1.88258e-08 7.9705e-09 -1.66245e-08 -0.0397124 0.00401593 1.20322e-06 0.08933 -0.2033)
(-1.01493e-07 6.01901e-09 2.53137e-09 -5.22789e-09 -0.0397124 0.00401593 3.83028e-07 0.0893301 -0.2033)
(-1.01476e-07 -5.95127e-09 -2.54306e-09 5.37968e-09 -0.0397124 0.00401593 -3.83871e-07 0.0893301 -0.2033)
(-1.1573e-07 -1.87661e-08 -7.97978e-09 1.67425e-08 -0.0397124 0.00401593 -1.20379e-06 0.08933 -0.2033)
(-1.46196e-07 -3.42096e-08 -1.45783e-08 3.05061e-08 -0.0397123 0.00401592 -2.19042e-06 0.0893299 -0.203301)
(-1.96599e-07 -5.43762e-08 -2.33585e-08 4.85854e-08 -0.0397122 0.00401592 -3.47952e-06 0.0893296 -0.203301)
(-2.71342e-07 -8.28477e-08 -3.55773e-08 7.32799e-08 -0.0397121 0.00401592 -5.24237e-06 0.0893291 -0.203301)
(-3.74104e-07 -1.31405e-07 -5.20139e-08 1.06706e-07 -0.039712 0.00401592 -7.68766e-06 0.0893285 -0.203301)
(-5.22338e-07 -2.24169e-07 -7.18239e-08 1.44366e-07 -0.0397117 0.00401591 -1.10529e-05 0.0893275 -0.203302)
(-8.29588e-07 -2.36256e-07 -1.0265e-07 1.54157e-07 -0.0397112 0.00401589 -1.57414e-05 0.0893258 -0.203303)
(-1.60672e-06 9.56685e-07 -1.4717e-07 1.2839e-07 -0.0397106 0.00401588 -2.31791e-05 0.0893245 -0.203303)
(-3.52179e-06 5.2267e-06 6.79622e-07 5.62541e-07 -0.0397136 0.0040161 -3.72902e-05 0.0893353 -0.203303)
(-1.98839e-05 -6.77185e-06 3.71996e-06 4.8111e-07 -0.039732 0.00401754 -6.72901e-05 0.0893787 -0.20329)
(-0.000207858 -0.00017097 -8.64847e-05 -3.26598e-05 -0.0397232 0.00401698 -0.000239337 0.0892622 -0.203227)
(-0.00187554 -0.000757365 -0.000849209 -0.000233606 -0.0392335 0.00393912 -0.00211223 0.0875846 -0.20354)
(-0.0171204 -0.00100098 0.00472307 -0.000751882 -0.0373172 0.00345892 -0.0210942 0.0813646 -0.205447)
(-0.081908 0.00281211 0.10796 -0.00643122 -0.0352511 0.00547207 -0.204975 0.0766693 -0.154211)
(-0.0860946 -0.00311441 -0.112382 0.00666926 -0.022117 0.00483682 0.213393 0.0481339 -0.152204)
(-0.0178042 0.000662732 -0.00488075 0.000868842 -0.0236389 0.00286138 0.022053 0.050874 -0.205807)
(-0.00195794 0.00056237 0.000913868 0.000262825 -0.0250002 0.0033294 0.00238992 0.0554584 -0.203807)
(-0.000235285 0.000129535 9.63719e-05 5.22976e-05 -0.0253518 0.00340948 0.000290294 0.0567082 -0.203475)
(-2.50384e-05 7.28813e-06 -3.75691e-06 2.51327e-06 -0.0253638 0.00341057 6.8642e-05 0.0568134 -0.203542)
(-3.69518e-06 -3.36685e-06 -9.08826e-07 -1.04813e-06 -0.0253505 0.003409 3.61065e-05 0.0567866 -0.203556)
(-1.51789e-06 -7.17074e-07 1.16613e-07 -3.12878e-07 -0.025348 0.00340873 2.27915e-05 0.0567788 -0.203557)
(-8.15165e-07 1.51554e-07 1.08391e-07 -1.27505e-07 -0.0253483 0.00340874 1.55096e-05 0.0567796 -0.203556)
(-5.18079e-07 1.61576e-07 7.65845e-08 -1.0268e-07 -0.0253486 0.00340876 1.08623e-05 0.0567808 -0.203555)
(-3.68841e-07 9.6445e-08 5.45513e-08 -7.94505e-08 -0.0253488 0.00340876 7.54496e-06 0.0567816 -0.203555)
(-2.66706e-07 6.04581e-08 3.71613e-08 -5.58684e-08 -0.0253489 0.00340877 5.14284e-06 0.0567821 -0.203554)
(-1.931e-07 3.94465e-08 2.44294e-08 -3.72174e-08 -0.025349 0.00340877 3.41288e-06 0.0567824 -0.203554)
(-1.43584e-07 2.47586e-08 1.52733e-08 -2.3326e-08 -0.0253491 0.00340877 2.14812e-06 0.0567826 -0.203554)
(-1.13664e-07 1.3588e-08 8.3683e-09 -1.2723e-08 -0.0253491 0.00340877 1.18013e-06 0.0567828 -0.203554)
(-9.96516e-08 4.34264e-09 2.66538e-09 -3.98557e-09 -0.0253491 0.00340877 3.75775e-07 0.0567828 -0.203554)
(-9.96386e-08 -4.29266e-09 -2.6607e-09 4.14128e-09 -0.0253491 0.00340877 -3.76354e-07 0.0567828 -0.203554)
(-1.13627e-07 -1.35449e-08 -8.36313e-09 1.28465e-08 -0.0253491 0.00340877 -1.18048e-06 0.0567828 -0.203554)
(-1.43531e-07 -2.47252e-08 -1.52677e-08 2.33935e-08 -0.0253491 0.00340877 -2.14808e-06 0.0567826 -0.203554)
(-1.93036e-07 -3.94163e-08 -2.44242e-08 3.72214e-08 -0.025349 0.00340877 -3.41233e-06 0.0567824 -0.203554)
(-2.66632e-07 -6.04201e-08 -3.7157e-08 5.58174e-08 -0.0253489 0.00340877 -5.14167e-06 0.0567821 -0.203554)
(-3.68755e-07 -9.63848e-08 -5.45443e-08 7.93643e-08 -0.0253488 0.00340876 -7.54308e-06 0.0567816 -0.203555)
(-5.17976e-07 -1.61486e-07 -7.65696e-08 1.02575e-07 -0.0253486 0.00340876 -1.08596e-05 0.0567808 -0.203555)
(-8.15047e-07 -1.51438e-07 -1.08362e-07 1.27383e-07 -0.0253483 0.00340874 -1.5506e-05 0.0567796 -0.203556)
(-1.51779e-06 7.172e-07 -1.1657e-07 3.12737e-07 -0.025348 0.00340873 -2.27868e-05 0.0567788 -0.203557)
(-3.69513e-06 3.36697e-06 9.08853e-07 1.04802e-06 -0.0253505 0.003409 -3.61011e-05 0.0567866 -0.203556)
(-2.50383e-05 -7.28806e-06 3.75684e-06 -2.51325e-06 -0.0253638 0.00341057 -6.86363e-05 0.0568134 -0.203541)
(-0.000235285 -0.000129535 -9.63721e-05 -5.22975e-05 -0.0253518 0.00340948 -0.000290288 0.0567082 -0.203475)
(-0.00195794 -0.00056237 -0.000913867 -0.000262826 -0.0250002 0.0033294 -0.00238991 0.0554584 -0.203807)
(-0.0178042 -0.000662732 0.00488075 -0.000868842 -0.0236389 0.00286138 -0.022053 0.050874 -0.205807)
(-0.0860946 0.00311441 0.112382 -0.00666926 -0.022117 0.00483682 -0.213393 0.0481339 -0.152204)
(-0.088784 -0.00259983 -0.116247 0.00539903 -0.0139915 0.0025653 0.220759 0.0304979 -0.151178)
(-0.0184017 0.000424337 -0.00502455 0.000791291 -0.0149249 0.000990643 0.0229964 0.0318794 -0.206627)
(-0.00203885 0.000414789 0.00095883 0.000225031 -0.015973 0.0013078 0.00264464 0.0352515 -0.204566)
(-0.00025992 9.825e-05 0.000102719 5.01265e-05 -0.0162376 0.00135692 0.000345848 0.0361911 -0.204225)
(-3.0553e-05 7.02826e-06 -3.81552e-06 3.87579e-06 -0.0162513 0.00135718 7.22319e-05 0.0362824 -0.204296)
(-4.08706e-06 -2.0617e-06 -1.04739e-06 -9.43342e-07 -0.0162424 0.00135631 3.4866e-05 0.0362668 -0.204311)
(-1.4227e-06 -5.10013e-07 9.4958e-08 -3.66838e-07 -0.0162404 0.00135615 2.23053e-05 0.0362614 -0.204312)
(-7.8767e-07 9.87612e-08 1.07656e-07 -1.22932e-07 -0.0162406 0.00135614 1.52987e-05 0.0362619 -0.204311)
(-5.12834e-07 1.17528e-07 7.63887e-08 -8.52772e-08 -0.0162408 0.00135613 1.07062e-05 0.0362628 -0.20431)
(-3.64834e-07 7.21383e-08 5.39902e-08 -6.66407e-08 -0.016241 0.00135612 7.42629e-06 0.0362634 -0.20431)
(-2.6298e-07 4.51692e-08 3.66926e-08 -4.76207e-08 -0.016241 0.00135612 5.05898e-06 0.0362638 -0.20431)
(-1.90168e-07 2.92787e-08 2.41281e-08 -3.19267e-08 -0.0162411 0.00135612 3.35669e-06 0.0362641 -0.204309)
(-1.41363e-07 1.83011e-08 1.50982e-08 -2.00526e-08 -0.0162411 0.00135611 2.11275e-06 0.0362642 -0.204309)
(-1.11907e-07 1.00225e-08 8.28007e-09 -1.09451e-08 -0.0162411 0.00135611 1.16078e-06 0.0362643 -0.204309)
(-9.81198e-08 3.19815e-09 2.64121e-09 -3.42758e-09 -0.0162412 0.00135611 3.69706e-07 0.0362644 -0.204309)
(-9.81099e-08 -3.16824e-09 -2.62846e-09 3.56708e-09 -0.0162412 0.00135611 -3.70041e-07 0.0362644 -0.204309)
(-1.1188e-07 -9.99707e-09 -8.26818e-09 1.10559e-08 -0.0162411 0.00135611 -1.16094e-06 0.0362643 -0.204309)
(-1.41321e-07 -1.82817e-08 -1.5088e-08 2.01141e-08 -0.0162411 0.00135611 -2.11261e-06 0.0362642 -0.204309)
(-1.90114e-07 -2.92605e-08 -2.412e-08 3.19327e-08 -0.0162411 0.00135612 -3.35614e-06 0.0362641 -0.204309)
(-2.62914e-07 -4.51455e-08 -3.6686e-08 4.75791e-08 -0.016241 0.00135612 -5.05791e-06 0.0362638 -0.20431)
(-3.64752e-07 -7.21009e-08 -5.39798e-08 6.65684e-08 -0.016241 0.00135612 -7.42458e-06 0.0362635 -0.20431)
(-5.12735e-07 -1.17472e-07 -7.6369e-08 8.51877e-08 -0.0162408 0.00135613 -1.07037e-05 0.0362628 -0.20431)
(-7.87556e-07 -9.86835e-08 -1.07622e-07 1.22827e-07 -0.0162406 0.00135614 -1.52953e-05 0.0362619 -0.204311)
(-1.42259e-06 5.10105e-07 -9.49137e-08 3.66722e-07 -0.0162404 0.00135615 -2.23008e-05 0.0362614 -0.204312)
(-4.08699e-06 2.06179e-06 1.04743e-06 9.43259e-07 -0.0162424 0.00135631 -3.48608e-05 0.0362668 -0.204311)
(-3.0553e-05 -7.02822e-06 3.81549e-06 -3.87574e-06 -0.0162513 0.00135718 -7.22262e-05 0.0362824 -0.204296)
(-0.00025992 -9.825e-05 -0.000102719 -5.01263e-05 -0.0162376 0.00135692 -0.000345842 0.0361911 -0.204225)
(-0.00203885 -0.000414789 -0.00095883 -0.000225031 -0.015973 0.0013078 -0.00264463 0.0352516 -0.204566)
(-0.0184017 -0.000424337 0.00502455 -0.000791291 -0.0149249 0.000990643 -0.0229964 0.0318794 -0.206627)
(-0.088784 0.00259983 0.116247 -0.00539903 -0.0139915 0.0025653 -0.220759 0.0304979 -0.151178)
(-0.0904455 -0.00186599 -0.119086 0.00379961 -0.00884824 0.00124766 0.226172 0.0193135 -0.150898)
(-0.018839 0.000266435 -0.00513225 0.000627386 -0.00932735 0.00014915 0.0237804 0.0198994 -0.207623)
(-0.00210617 0.00029983 0.000987123 0.000176682 -0.0101391 0.000351347 0.00285046 0.0223235 -0.20554)
(-0.000279516 7.38757e-05 0.000106248 4.12958e-05 -0.0103431 0.000379258 0.000393767 0.0230246 -0.205202)
(-3.52523e-05 6.32451e-06 -3.87841e-06 4.10787e-06 -0.0103568 0.000379118 7.65411e-05 0.0231011 -0.205276)
(-4.54371e-06 -1.19505e-06 -1.11338e-06 -6.62265e-07 -0.0103512 0.000378707 3.39102e-05 0.0230928 -0.205292)
(-1.35381e-06 -3.46377e-07 8.25796e-08 -3.44273e-07 -0.0103496 0.000378631 2.18306e-05 0.0230892 -0.205293)
(-7.58853e-07 6.73931e-08 1.03972e-07 -1.19783e-07 -0.0103497 0.000378609 1.51021e-05 0.0230895 -0.205292)
(-5.06821e-07 8.67948e-08 7.37977e-08 -7.64028e-08 -0.0103499 0.000378594 1.05711e-05 0.0230902 -0.205292)
(-3.6131e-07 5.4997e-08 5.20107e-08 -5.89562e-08 -0.01035 0.000378582 7.32365e-06 0.0230907 -0.205291)
(-2.59763e-07 3.45294e-08 3.53006e-08 -4.2446e-08 -0.01035 0.000378573 4.98581e-06 0.023091 -0.205291)
(-1.87586e-07 2.22399e-08 2.32071e-08 -2.86146e-08 -0.0103501 0.000378568 3.30741e-06 0.0230912 -0.205291)
(-1.39387e-07 1.38313e-08 1.45268e-08 -1.80228e-08 -0.0103501 0.000378564 2.08166e-06 0.0230913 -0.205291)
(-1.10339e-07 7.5517e-09 7.97114e-09 -9.85253e-09 -0.0103501 0.000378562 1.14375e-06 0.0230914 -0.205291)
(-9.67491e-08 2.40238e-09 2.54517e-09 -3.09093e-09 -0.0103501 0.000378561 3.64361e-07 0.0230915 -0.205291)
(-9.67419e-08 -2.39307e-09 -2.52788e-09 3.20613e-09 -0.0103501 0.000378561 -3.64489e-07 0.0230915 -0.205291)
(-1.10318e-07 -7.54379e-09 -7.95579e-09 9.94377e-09 -0.0103501 0.000378562 -1.14375e-06 0.0230914 -0.205291)
(-1.39356e-07 -1.38244e-08 -1.45149e-08 1.80727e-08 -0.0103501 0.000378564 -2.08143e-06 0.0230913 -0.205291)
(-1.87543e-07 -2.22299e-08 -2.31991e-08 2.86181e-08 -0.0103501 0.000378568 -3.30685e-06 0.0230912 -0.205291)
(-2.59704e-07 -3.45132e-08 -3.52957e-08 4.24087e-08 -0.01035 0.000378573 -4.98481e-06 0.023091 -0.205291)
(-3.61233e-07 -5.4971e-08 -5.20032e-08 5.88905e-08 -0.01035 0.000378582 -7.32208e-06 0.0230907 -0.205291)
(-5.06724e-07 -8.67565e-08 -7.37817e-08 7.63194e-08 -0.0103499 0.000378594 -1.05688e-05 0.0230902 -0.205292)
(-7.5874e-07 -6.73373e-08 -1.03942e-07 1.19687e-07 -0.0103497 0.000378609 -1.50989e-05 0.0230895 -0.205292)
(-1.3537e-06 3.46449e-07 -8.25396e-08 3.44172e-07 -0.0103496 0.000378631 -2.18264e-05 0.0230892 -0.205293)
(-4.54362e-06 1.19512e-06 1.11342e-06 6.62197e-07 -0.0103512 0.000378707 -3.39051e-05 0.0230928 -0.205292)
(-3.52522e-05 -6.32447e-06 3.8784e-06 -4.10785e-06 -0.0103568 0.000379118 -7.65354e-05 0.0231011 -0.205276)
(-0.000279516 -7.38757e-05 -0.000106248 -4.12957e-05 -0.0103431 0.000379258 -0.000393761 0.0230246 -0.205202)
(-0.00210617 -0.00029983 -0.000987122 -0.000176682 -0.0101391 0.000351347 -0.00285046 0.0223235 -0.20554)
(-0.018839 -0.000266435 0.00513225 -0.000627385 -0.00932735 0.000149149 -0.0237804 0.0198994 -0.207623)
(-0.0904455 0.00186599 0.119086 -0.00379962 -0.00884824 0.00124766 -0.226172 0.0193135 -0.150898)
(-0.0914684 -0.0012219 -0.120964 0.00245151 -0.00558609 0.000657062 0.229756 0.0121962 -0.150871)
(-0.0191263 0.000166158 -0.00520382 0.000451126 -0.00578812 -5.14078e-05 0.0243624 0.0123837 -0.208417)
(-0.00215607 0.00021163 0.00100485 0.000133681 -0.00639962 7.60506e-05 0.00300896 0.0140797 -0.206332)
(-0.000294435 5.47258e-05 0.000108273 3.21373e-05 -0.00655735 9.25479e-05 0.00043175 0.0145947 -0.205999)
(-3.89447e-05 5.42542e-06 -3.92575e-06 3.75019e-06 -0.00656999 9.23744e-05 8.06869e-05 0.0146571 -0.206077)
(-4.97749e-06 -6.40354e-07 -1.14483e-06 -3.98761e-07 -0.00656658 9.21719e-05 3.32804e-05 0.0146532 -0.206094)
(-1.31421e-06 -2.2478e-07 7.53302e-08 -2.88892e-07 -0.00656551 9.21319e-05 2.14196e-05 0.014651 -0.206094)
(-7.34096e-07 4.90637e-08 1.00108e-07 -1.11801e-07 -0.00656554 9.21116e-05 1.49221e-05 0.0146512 -0.206094)
(-5.00669e-07 6.52605e-08 7.0974e-08 -6.91629e-08 -0.00656565 9.20966e-05 1.04516e-05 0.0146518 -0.206093)
(-3.58043e-07 4.26353e-08 4.99674e-08 -5.24197e-08 -0.00656572 9.20856e-05 7.2337e-06 0.0146522 -0.206093)
(-2.56911e-07 2.69086e-08 3.3881e-08 -3.78294e-08 -0.00656576 9.20779e-05 4.92138e-06 0.0146524 -0.206092)
(-1.85283e-07 1.72339e-08 2.22631e-08 -2.5614e-08 -0.00656579 9.20726e-05 3.26383e-06 0.0146526 -0.206092)
(-1.3761e-07 1.06588e-08 1.39369e-08 -1.61786e-08 -0.0065658 9.20692e-05 2.0541e-06 0.0146527 -0.206092)
(-1.08921e-07 5.79759e-09 7.65029e-09 -8.86046e-09 -0.00656581 9.20672e-05 1.12863e-06 0.0146527 -0.206092)
(-9.5508e-08 1.83556e-09 2.4446e-09 -2.78683e-09 -0.00656582 9.20663e-05 3.59605e-07 0.0146527 -0.206092)
(-9.55029e-08 -1.84593e-09 -2.42414e-09 2.87562e-09 -0.00656582 9.20663e-05 -3.59572e-07 0.0146527 -0.206092)
(-1.08906e-07 -5.80593e-09 -7.63262e-09 8.93038e-09 -0.00656581 9.20672e-05 -1.12851e-06 0.0146527 -0.206092)
(-1.37586e-07 -1.06626e-08 -1.39241e-08 1.62159e-08 -0.0065658 9.20693e-05 -2.0538e-06 0.0146527 -0.206092)
(-1.85247e-07 -1.72293e-08 -2.22557e-08 2.56145e-08 -0.00656579 9.20727e-05 -3.26328e-06 0.0146526 -0.206092)
(-2.56859e-07 -2.6895e-08 -3.3878e-08 3.77965e-08 -0.00656576 9.20779e-05 -4.92045e-06 0.0146524 -0.206092)
(-3.5797e-07 -4.26128e-08 -4.99633e-08 5.23614e-08 -0.00656572 9.20856e-05 -7.23225e-06 0.0146522 -0.206093)
(-5.00575e-07 -6.52292e-08 -7.09625e-08 6.9087e-08 -0.00656565 9.20966e-05 -1.04495e-05 0.0146518 -0.206093)
(-7.33985e-07 -4.90177e-08 -1.00084e-07 1.11714e-07 -0.00656554 9.21115e-05 -1.4919e-05 0.0146512 -0.206094)
(-1.31409e-06 2.24842e-07 -7.52945e-08 2.88803e-07 -0.00656551 9.21318e-05 -2.14156e-05 0.014651 -0.206094)
(-4.9774e-06 6.40416e-07 1.14486e-06 3.987e-07 -0.00656658 9.21718e-05 -3.32755e-05 0.0146532 -0.206094)
(-3.89446e-05 -5.42538e-06 3.92574e-06 -3.75019e-06 -0.00656999 9.23744e-05 -8.06812e-05 0.0146571 -0.206077)
(-0.000294435 -5.47257e-05 -0.000108274 -3.21372e-05 -0.00655735 9.25478e-05 -0.000431744 0.0145947 -0.205999)
(-0.00215607 -0.00021163 -0.00100485 -0.000133681 -0.00639962 7.60506e-05 -0.00300896 0.0140797 -0.206332)
(-0.0191263 -0.000166158 0.00520382 -0.000451126 -0.00578812 -5.14081e-05 -0.0243623 0.0123837 -0.208417)
(-0.0914684 0.0012219 0.120964 -0.00245151 -0.00558609 0.000657063 -0.229756 0.0121962 -0.150871)
(-0.0920993 -0.0007564 -0.12213 0.00149924 -0.00352496 0.00038572 0.23198 0.0076817 -0.150893)
(-0.0193025 0.00010373 -0.00524845 0.000301915 -0.00358628 -5.1573e-05 0.0247606 0.00770039 -0.208941)
(-0.00218997 0.000145984 0.00101591 9.84898e-05 -0.00403084 2.74696e-05 0.0031276 0.00885763 -0.206864)
(-0.000305502 3.98003e-05 0.000109512 2.44325e-05 -0.00415142 3.76618e-05 0.000460909 0.00922869 -0.206537)
(-4.17595e-05 4.47873e-06 -3.95361e-06 3.17146e-06 -0.0041627 3.75694e-05 8.42888e-05 0.00927832 -0.206617)
(-5.35153e-06 -2.97506e-07 -1.16189e-06 -2.10464e-07 -0.00416072 3.74574e-05 3.2906e-05 0.00927704 -0.206634)
(-1.29642e-06 -1.38479e-07 7.05195e-08 -2.27268e-07 -0.00415998 3.7432e-05 2.10873e-05 0.00927568 -0.206635)
(-7.14907e-07 3.79664e-08 9.6913e-08 -9.91752e-08 -0.00415999 3.74158e-05 1.47629e-05 0.00927592 -0.206635)
(-4.94945e-07 4.98326e-08 6.8613e-08 -6.13259e-08 -0.00416007 3.74036e-05 1.0347e-05 0.00927635 -0.206634)
(-3.55043e-07 3.34102e-08 4.82731e-08 -4.57782e-08 -0.00416013 3.73948e-05 7.1556e-06 0.00927665 -0.206634)
(-2.54402e-07 2.12195e-08 3.2703e-08 -3.30406e-08 -0.00416016 3.73885e-05 4.86531e-06 0.00927685 -0.206633)
(-1.83256e-07 1.35272e-08 2.14769e-08 -2.24489e-08 -0.00416018 3.73842e-05 3.22577e-06 0.00927697 -0.206633)
(-1.36037e-07 8.31977e-09 1.3444e-08 -1.42168e-08 -0.00416019 3.73815e-05 2.02997e-06 0.00927706 -0.206633)
(-1.0766e-07 4.50559e-09 7.38157e-09 -7.80009e-09 -0.0041602 3.73798e-05 1.11538e-06 0.0092771 -0.206633)
(-9.44019e-08 1.41683e-09 2.36022e-09 -2.45996e-09 -0.0041602 3.73791e-05 3.55425e-07 0.00927712 -0.206633)
(-9.43985e-08 -1.44564e-09 -2.33727e-09 2.52404e-09 -0.0041602 3.73791e-05 -3.55272e-07 0.00927712 -0.206633)
(-1.0765e-07 -4.52885e-09 -7.36212e-09 7.85014e-09 -0.0041602 3.73798e-05 -1.11516e-06 0.0092771 -0.206633)
(-1.36019e-07 -8.33264e-09 -1.34305e-08 1.42425e-08 -0.00416019 3.73815e-05 -2.02963e-06 0.00927705 -0.206633)
(-1.83226e-07 -1.35259e-08 -2.147e-08 2.24471e-08 -0.00416018 3.73843e-05 -3.22523e-06 0.00927697 -0.206633)
(-2.54355e-07 -2.12054e-08 -3.27014e-08 3.3013e-08 -0.00416016 3.73885e-05 -4.86444e-06 0.00927685 -0.206633)
(-3.54975e-07 -3.33865e-08 -4.82715e-08 4.5729e-08 -0.00416013 3.73948e-05 -7.15425e-06 0.00927665 -0.206634)
(-4.94854e-07 -4.98018e-08 -6.8605e-08 6.12601e-08 -0.00416007 3.74036e-05 -1.03449e-05 0.00927635 -0.206634)
(-7.14797e-07 -3.79234e-08 -9.68923e-08 9.90993e-08 -0.00415999 3.74157e-05 -1.476e-05 0.00927592 -0.206635)
(-1.2963e-06 1.38536e-07 -7.04873e-08 2.27192e-07 -0.00415998 3.74319e-05 -2.10834e-05 0.00927568 -0.206635)
(-5.35142e-06 2.97565e-07 1.16192e-06 2.10407e-07 -0.00416072 3.74574e-05 -3.29011e-05 0.00927705 -0.206634)
(-4.17594e-05 -4.47869e-06 3.95361e-06 -3.17148e-06 -0.0041627 3.75693e-05 -8.42831e-05 0.00927832 -0.206617)
(-0.000305502 -3.98002e-05 -0.000109513 -2.44324e-05 -0.00415142 3.76617e-05 -0.000460902 0.00922869 -0.206537)
(-0.00218997 -0.000145984 -0.00101591 -9.84897e-05 -0.00403084 2.74695e-05 -0.00312759 0.00885764 -0.206864)
(-0.0193025 -0.000103729 0.00524845 -0.000301915 -0.00358628 -5.15732e-05 -0.0247606 0.00770039 -0.208941)
(-0.0920993 0.000756401 0.12213 -0.00149925 -0.00352496 0.000385721 -0.23198 0.00768171 -0.150893)
(-0.0924882 -0.000453541 -0.122827 0.000889761 -0.00222791 0.000238503 0.233309 0.00482434 -0.150913)
(-0.0194064 6.49811e-05 -0.00527547 0.000191821 -0.0022297 -2.53334e-05 0.0250176 0.00478726 -0.209263)
(-0.00221156 9.86012e-05 0.0010227 7.05691e-05 -0.00254295 2.26197e-05 0.00321398 0.00555975 -0.207196)
(-0.000313499 2.83539e-05 0.000110293 1.8273e-05 -0.00263358 2.90001e-05 0.00048293 0.00582155 -0.206874)
(-4.38732e-05 3.56715e-06 -3.96662e-06 2.5603e-06 -0.00264336 2.89806e-05 8.72487e-05 0.00585992 -0.206956)
(-5.65724e-06 -9.62868e-08 -1.17232e-06 -9.42107e-08 -0.00264231 2.89136e-05 3.27009e-05 0.0058601 -0.206973)
(-1.29195e-06 -7.97339e-08 6.70025e-08 -1.71698e-07 -0.00264182 2.88952e-05 2.08296e-05 0.00585934 -0.206974)