/*--------------------------------*- C++ -*----------------------------------*\
| =========                 |                                                 |
| \\      /  F ield         | OpenFOAM: The Open Source CFD Toolbox           |
|  \\    /   O peration     | Version:  2106                                  |
|   \\  /    A nd           | Website:  www.openfoam.com                      |
|    \\/     M anipulation  |                                                 |
\*---------------------------------------------------------------------------*/
FoamFile
{
    version     2.0;
    format      ascii;
    arch        "LSB;label=32;scalar=64";
    class       volVectorField;
    location    "505";
    object      D;
}
// * * * * * * * * * * * * * * * * * * * * * * * * * * * * * * * * * * * * * //

dimensions      [0 1 0 0 0 0 0];

internalField   nonuniform List<vector> 
9000
(
(1.14017e-05 2.08543e-05 3.13362e-06)
(1.32515e-06 2.196e-05 8.21274e-08)
(2.18978e-07 2.3312e-05 1.22945e-06)
(3.88887e-08 2.36144e-05 1.44278e-06)
(4.89302e-09 2.36234e-05 1.4459e-06)
(1.91981e-09 2.35888e-05 1.42403e-06)
(2.17214e-09 2.36082e-05 1.43602e-06)
(9.24187e-10 2.35881e-05 1.42394e-06)
(2.13939e-09 2.35876e-05 1.42353e-06)
(2.89774e-10 2.36147e-05 1.44094e-06)
(-2.21849e-09 2.35993e-05 1.42947e-06)
(1.89613e-09 2.35719e-05 1.41134e-06)
(2.99405e-09 2.3611e-05 1.43867e-06)
(-1.14159e-09 2.36118e-05 1.43884e-06)
(1.35088e-10 2.3603e-05 1.43144e-06)
(1.16206e-09 2.36159e-05 1.44149e-06)
(-1.60434e-09 2.36116e-05 1.43862e-06)
(-2.59324e-10 2.36035e-05 1.4318e-06)
(-1.56821e-09 2.36125e-05 1.4396e-06)
(-1.68671e-09 2.35737e-05 1.41301e-06)
(1.50871e-09 2.35851e-05 1.42186e-06)
(1.23905e-10 2.36133e-05 1.43991e-06)
(-2.2982e-09 2.36156e-05 1.44144e-06)
(-2.24261e-09 2.35901e-05 1.42519e-06)
(-2.32843e-09 2.36108e-05 1.43862e-06)
(-7.53466e-09 2.35981e-05 1.42967e-06)
(-3.83421e-08 2.35959e-05 1.42958e-06)
(-2.17273e-07 2.33057e-05 1.2255e-06)
(-1.325e-06 2.19596e-05 8.18651e-08)
(-1.14018e-05 2.08532e-05 3.13309e-06)
(1.10751e-05 1.25646e-05 -5.84653e-06)
(1.2228e-06 1.31891e-05 -9.2591e-06)
(1.43026e-07 1.40064e-05 -8.68761e-06)
(2.12312e-08 1.4211e-05 -8.60732e-06)
(5.34391e-09 1.4217e-05 -8.60817e-06)
(2.90379e-09 1.41997e-05 -8.60646e-06)
(2.24003e-09 1.42061e-05 -8.60984e-06)
(1.41092e-09 1.42e-05 -8.60562e-06)
(1.19556e-09 1.41995e-05 -8.60588e-06)
(8.88695e-10 1.42101e-05 -8.60933e-06)
(4.02005e-10 1.42067e-05 -8.60717e-06)
(5.79446e-10 1.41961e-05 -8.6034e-06)
(4.47752e-10 1.4207e-05 -8.60969e-06)
(-1.18328e-10 1.42059e-05 -8.60874e-06)
(-4.31991e-11 1.42093e-05 -8.60711e-06)
(-1.42403e-11 1.4211e-05 -8.60926e-06)
(-2.75286e-10 1.42058e-05 -8.60878e-06)
(-1.50691e-10 1.42096e-05 -8.60707e-06)
(-3.63473e-10 1.42086e-05 -8.60939e-06)
(-6.42551e-10 1.41974e-05 -8.60339e-06)
(-9.03599e-10 1.4198e-05 -8.60536e-06)
(-1.19207e-09 1.42084e-05 -8.61006e-06)
(-1.55132e-09 1.42108e-05 -8.6093e-06)
(-1.97805e-09 1.4201e-05 -8.60575e-06)
(-2.6854e-09 1.42066e-05 -8.61013e-06)
(-5.53544e-09 1.42077e-05 -8.60438e-06)
(-2.12663e-08 1.42055e-05 -8.60519e-06)
(-1.43073e-07 1.39999e-05 -8.68762e-06)
(-1.22292e-06 1.31887e-05 -9.25908e-06)
(-1.10751e-05 1.25634e-05 -5.84679e-06)
(1.1146e-05 7.77763e-06 -7.41028e-06)
(1.21877e-06 8.20032e-06 -1.09328e-05)
(1.2995e-07 8.74741e-06 -1.04557e-05)
(1.56839e-08 8.89437e-06 -1.04014e-05)
(5.48104e-09 8.90032e-06 -1.04033e-05)
(3.23677e-09 8.89494e-06 -1.04005e-05)
(2.24874e-09 8.89201e-06 -1.04036e-05)
(1.79698e-09 8.89733e-06 -1.04005e-05)
(6.6881e-10 8.89667e-06 -1.04007e-05)
(7.7363e-10 8.89518e-06 -1.04035e-05)
(1.46276e-09 8.89277e-06 -1.04027e-05)
(2.72113e-10 8.89471e-06 -1.03991e-05)
(-8.28424e-10 8.89164e-06 -1.04021e-05)
(6.85468e-11 8.8955e-06 -1.04018e-05)
(1.18937e-10 8.89481e-06 -1.04029e-05)
(-5.33098e-10 8.89592e-06 -1.04036e-05)
(5.91191e-11 8.89547e-06 -1.04019e-05)
(1.87412e-10 8.8948e-06 -1.04029e-05)
(2.86691e-10 8.89432e-06 -1.04032e-05)
(-7.3427e-11 8.89559e-06 -1.03995e-05)
(-1.79947e-09 8.89628e-06 -1.03997e-05)
(-1.91364e-09 8.89243e-06 -1.04031e-05)
(-1.10124e-09 8.89584e-06 -1.04036e-05)
(-1.8795e-09 8.89715e-06 -1.04011e-05)
(-2.77037e-09 8.89091e-06 -1.04032e-05)
(-4.6716e-09 8.90275e-06 -1.04001e-05)
(-1.63543e-08 8.89068e-06 -1.04001e-05)
(-1.30606e-07 8.74587e-06 -1.04539e-05)
(-1.2188e-06 8.20011e-06 -1.09326e-05)
(-1.11458e-05 7.77601e-06 -7.41074e-06)
(1.15316e-05 4.89052e-06 -7.09759e-06)
(1.26118e-06 5.16002e-06 -1.0743e-05)
(1.42731e-07 5.55758e-06 -1.02383e-05)
(1.683e-08 5.66403e-06 -1.018e-05)
(4.99734e-09 5.66976e-06 -1.01823e-05)
(3.20216e-09 5.66643e-06 -1.0182e-05)
(2.35261e-09 5.66274e-06 -1.01824e-05)
(1.67701e-09 5.66756e-06 -1.01835e-05)
(8.64587e-10 5.66594e-06 -1.01827e-05)
(9.35041e-10 5.66636e-06 -1.01822e-05)
(1.36516e-09 5.66452e-06 -1.01823e-05)
(8.96107e-11 5.66563e-06 -1.01823e-05)
(-6.34578e-10 5.66599e-06 -1.01811e-05)
(2.63885e-10 5.67132e-06 -1.01821e-05)
(1.03788e-11 5.66646e-06 -1.01822e-05)
(-4.32513e-10 5.66701e-06 -1.01825e-05)
(6.93394e-11 5.67125e-06 -1.01822e-05)
(1.57663e-10 5.66641e-06 -1.01822e-05)
(1.04884e-10 5.66575e-06 -1.01815e-05)
(-2.83702e-10 5.66643e-06 -1.0183e-05)
(-1.74498e-09 5.66687e-06 -1.01826e-05)
(-1.78721e-09 5.66597e-06 -1.01815e-05)
(-1.14164e-09 5.66707e-06 -1.01825e-05)
(-2.054e-09 5.66605e-06 -1.01834e-05)
(-2.72986e-09 5.66364e-06 -1.01812e-05)
(-4.26126e-09 5.67114e-06 -1.01828e-05)
(-1.71815e-08 5.66157e-06 -1.01794e-05)
(-1.4341e-07 5.56073e-06 -1.02373e-05)
(-1.26144e-06 5.15995e-06 -1.07428e-05)
(-1.15309e-05 4.88808e-06 -7.0974e-06)
(1.20065e-05 3.08856e-06 -6.68493e-06)
(1.32005e-06 3.23582e-06 -1.04719e-05)
(1.61108e-07 3.53296e-06 -9.93138e-06)
(2.0021e-08 3.6102e-06 -9.86562e-06)
(4.79974e-09 3.6149e-06 -9.86755e-06)
(2.84974e-09 3.61737e-06 -9.86868e-06)
(2.36807e-09 3.61118e-06 -9.86818e-06)
(1.56966e-09 3.61421e-06 -9.86899e-06)
(1.0449e-09 3.6143e-06 -9.86851e-06)
(1.15739e-09 3.61307e-06 -9.86795e-06)
(1.08844e-09 3.61131e-06 -9.86786e-06)
(1.83451e-10 3.61263e-06 -9.8683e-06)
(-3.84989e-10 3.6156e-06 -9.86852e-06)
(2.41229e-10 3.61666e-06 -9.86932e-06)
(5.13803e-11 3.61364e-06 -9.86807e-06)
(-3.99988e-10 3.61362e-06 -9.86844e-06)
(1.32632e-11 3.61653e-06 -9.86944e-06)
(1.6291e-10 3.61361e-06 -9.86808e-06)
(-1.30354e-10 3.61264e-06 -9.86731e-06)
(-4.97018e-10 3.6133e-06 -9.8688e-06)
(-1.41067e-09 3.61376e-06 -9.86838e-06)
(-1.53695e-09 3.61499e-06 -9.86803e-06)
(-1.46048e-09 3.61408e-06 -9.86831e-06)
(-2.22067e-09 3.61416e-06 -9.8689e-06)
(-2.49601e-09 3.61422e-06 -9.86812e-06)
(-4.21278e-09 3.6163e-06 -9.86819e-06)
(-2.03175e-08 3.60831e-06 -9.86529e-06)
(-1.61598e-07 3.53459e-06 -9.93216e-06)
(-1.3204e-06 3.23582e-06 -1.04717e-05)
(-1.20049e-05 3.08819e-06 -6.68467e-06)
(1.24211e-05 1.94928e-06 -6.45373e-06)
(1.3778e-06 2.01615e-06 -1.03624e-05)
(1.77826e-07 2.23323e-06 -9.79612e-06)
(2.34437e-08 2.29233e-06 -9.7261e-06)
(5.00062e-09 2.29791e-06 -9.72806e-06)
(2.6919e-09 2.30044e-06 -9.73017e-06)
(2.2344e-09 2.29666e-06 -9.72907e-06)
(1.65039e-09 2.29647e-06 -9.72908e-06)
(1.05265e-09 2.29834e-06 -9.72935e-06)
(9.53741e-10 2.29488e-06 -9.72859e-06)
(9.09757e-10 2.29545e-06 -9.7287e-06)
(2.95364e-10 2.29445e-06 -9.72829e-06)
(-1.31212e-10 2.29617e-06 -9.72978e-06)
(3.24056e-10 2.29788e-06 -9.7293e-06)
(4.5075e-11 2.29602e-06 -9.72862e-06)
(-3.36466e-10 2.29519e-06 -9.72868e-06)
(-1.8519e-11 2.29775e-06 -9.72934e-06)
(2.2845e-11 2.29603e-06 -9.72868e-06)
(-2.89015e-10 2.29434e-06 -9.72804e-06)
(-5.35411e-10 2.29543e-06 -9.72908e-06)
(-1.35029e-09 2.29582e-06 -9.7286e-06)
(-1.35569e-09 2.29783e-06 -9.72974e-06)
(-1.28915e-09 2.29645e-06 -9.72893e-06)
(-2.35073e-09 2.29747e-06 -9.72888e-06)
(-2.49652e-09 2.29818e-06 -9.7302e-06)
(-4.36326e-09 2.29732e-06 -9.72833e-06)
(-2.38788e-08 2.29009e-06 -9.72518e-06)
(-1.78121e-07 2.2341e-06 -9.79684e-06)
(-1.37796e-06 2.01617e-06 -1.03621e-05)
(-1.24193e-05 1.95109e-06 -6.45391e-06)
(1.27253e-05 1.22837e-06 -6.34343e-06)
(1.42567e-06 1.25138e-06 -1.03402e-05)
(1.9115e-07 1.40759e-06 -9.75746e-06)
(2.67294e-08 1.45109e-06 -9.68506e-06)
(5.27567e-09 1.45729e-06 -9.68686e-06)
(2.43508e-09 1.45741e-06 -9.68892e-06)
(2.13752e-09 1.45722e-06 -9.68868e-06)
(1.64329e-09 1.45491e-06 -9.68794e-06)
(9.19737e-10 1.456e-06 -9.68858e-06)
(9.78031e-10 1.45478e-06 -9.68812e-06)
(7.41018e-10 1.45577e-06 -9.68801e-06)
(7.81165e-11 1.45408e-06 -9.68799e-06)
(2.18779e-10 1.45468e-06 -9.68835e-06)
(4.97243e-10 1.45572e-06 -9.6879e-06)
(-8.92965e-11 1.4545e-06 -9.68768e-06)
(-2.53752e-10 1.4548e-06 -9.68793e-06)
(6.0034e-11 1.45559e-06 -9.68791e-06)
(-2.82868e-10 1.45456e-06 -9.68772e-06)
(-4.0327e-10 1.45391e-06 -9.68815e-06)
(-4.35742e-10 1.45337e-06 -9.68771e-06)
(-1.1014e-09 1.45342e-06 -9.68753e-06)
(-1.16461e-09 1.45719e-06 -9.68856e-06)
(-1.50627e-09 1.45496e-06 -9.68797e-06)
(-2.39256e-09 1.45623e-06 -9.68862e-06)
(-2.35275e-09 1.45746e-06 -9.68942e-06)
(-4.79741e-09 1.45458e-06 -9.68689e-06)
(-2.69628e-08 1.44978e-06 -9.68471e-06)
(-1.91225e-07 1.4081e-06 -9.75753e-06)
(-1.42582e-06 1.2514e-06 -1.03398e-05)
(-1.2724e-05 1.22967e-06 -6.34414e-06)
(1.29263e-05 7.73077e-07 -6.28796e-06)
(1.46145e-06 7.76231e-07 -1.03426e-05)
(2.01289e-07 8.8645e-07 -9.74944e-06)
(2.90369e-08 9.1722e-07 -9.67569e-06)
(5.54338e-09 9.21808e-07 -9.67769e-06)
(2.43764e-09 9.22029e-07 -9.67888e-06)
(2.01628e-09 9.23047e-07 -9.67948e-06)
(1.52614e-09 9.20537e-07 -9.67858e-06)
(1.01398e-09 9.21129e-07 -9.6788e-06)
(9.52495e-10 9.21855e-07 -9.67873e-06)
(5.80903e-10 9.21078e-07 -9.67892e-06)
(4.71231e-11 9.20715e-07 -9.67876e-06)
(3.11071e-10 9.22324e-07 -9.67911e-06)
(4.99909e-10 9.21029e-07 -9.67843e-06)
(-1.47045e-11 9.20125e-07 -9.67846e-06)
(-1.73761e-10 9.21751e-07 -9.67859e-06)
(-7.11971e-11 9.20914e-07 -9.67846e-06)
(-3.54728e-10 9.2023e-07 -9.67843e-06)
(-5.65227e-10 9.20394e-07 -9.67899e-06)
(-6.70729e-10 9.20092e-07 -9.67876e-06)
(-8.31097e-10 9.19564e-07 -9.6788e-06)
(-8.68119e-10 9.219e-07 -9.67915e-06)
(-1.45696e-09 9.2062e-07 -9.67864e-06)
(-2.31652e-09 9.22659e-07 -9.67915e-06)
(-2.53036e-09 9.23969e-07 -9.67997e-06)
(-5.16984e-09 9.20912e-07 -9.67781e-06)
(-2.90057e-08 9.16564e-07 -9.67592e-06)
(-2.01292e-07 8.86607e-07 -9.7492e-06)
(-1.46165e-06 7.76106e-07 -1.0342e-05)
(-1.29257e-05 7.73968e-07 -6.28838e-06)
(1.30508e-05 4.85782e-07 -6.25649e-06)
(1.48596e-06 4.82029e-07 -1.03471e-05)
(2.08869e-07 5.56908e-07 -9.7475e-06)
(3.07765e-08 5.79275e-07 -9.67283e-06)
(5.76223e-09 5.82613e-07 -9.67484e-06)
(2.46855e-09 5.82897e-07 -9.67576e-06)
(1.91834e-09 5.83468e-07 -9.67642e-06)
(1.46763e-09 5.82014e-07 -9.67576e-06)
(1.0711e-09 5.82342e-07 -9.67576e-06)
(9.19594e-10 5.82878e-07 -9.67573e-06)
(3.76681e-10 5.82351e-07 -9.67577e-06)
(2.03325e-10 5.82771e-07 -9.67645e-06)
(4.69981e-10 5.84257e-07 -9.6763e-06)
(3.06659e-10 5.82355e-07 -9.67559e-06)
(1.38243e-11 5.81487e-07 -9.67582e-06)
(-9.81838e-11 5.82729e-07 -9.67576e-06)
(-1.55267e-10 5.82262e-07 -9.67565e-06)
(-5.25815e-10 5.81736e-07 -9.6757e-06)
(-4.92069e-10 5.81926e-07 -9.67631e-06)
(-6.02235e-10 5.8264e-07 -9.67609e-06)
(-8.00147e-10 5.83169e-07 -9.67651e-06)
(-7.6185e-10 5.8285e-07 -9.67588e-06)
(-1.42519e-09 5.82122e-07 -9.67579e-06)
(-2.08048e-09 5.83354e-07 -9.67627e-06)
(-2.46967e-09 5.85139e-07 -9.6766e-06)
(-5.77343e-09 5.8331e-07 -9.67495e-06)
(-3.08186e-08 5.78677e-07 -9.67367e-06)
(-2.08691e-07 5.56849e-07 -9.74723e-06)
(-1.48611e-06 4.81743e-07 -1.03468e-05)
(-1.30507e-05 4.86499e-07 -6.25659e-06)
(1.3125e-05 3.04228e-07 -6.23731e-06)
(1.50179e-06 2.99527e-07 -1.03495e-05)
(2.14385e-07 3.4928e-07 -9.74566e-06)
(3.20886e-08 3.65192e-07 -9.67079e-06)
(5.96481e-09 3.6743e-07 -9.67283e-06)
(2.50788e-09 3.6785e-07 -9.67367e-06)
(1.85108e-09 3.68169e-07 -9.67393e-06)
(1.41725e-09 3.67347e-07 -9.67374e-06)
(1.07388e-09 3.6754e-07 -9.67371e-06)
(8.90124e-10 3.67807e-07 -9.67347e-06)
(4.4795e-10 3.67571e-07 -9.6736e-06)
(2.97093e-10 3.68745e-07 -9.67409e-06)
(3.95871e-10 3.68723e-07 -9.67406e-06)
(1.4692e-10 3.676e-07 -9.67357e-06)
(-5.35005e-13 3.66398e-07 -9.67372e-06)
(-6.85677e-12 3.67732e-07 -9.67368e-06)
(-1.9166e-10 3.67558e-07 -9.67364e-06)
(-5.81414e-10 3.67011e-07 -9.67388e-06)
(-4.69725e-10 3.68798e-07 -9.67443e-06)
(-4.44104e-10 3.6714e-07 -9.67409e-06)
(-7.22485e-10 3.68874e-07 -9.67461e-06)
(-8.54901e-10 3.67854e-07 -9.67367e-06)
(-1.4018e-09 3.67473e-07 -9.67373e-06)
(-1.93294e-09 3.68158e-07 -9.67388e-06)
(-2.45772e-09 3.69125e-07 -9.67413e-06)
(-6.12546e-09 3.68053e-07 -9.67302e-06)
(-3.21862e-08 3.65943e-07 -9.67179e-06)
(-2.14154e-07 3.49066e-07 -9.74551e-06)
(-1.5019e-06 2.99299e-07 -1.03495e-05)
(-1.31252e-05 3.05028e-07 -6.23713e-06)
(1.31682e-05 1.88877e-07 -6.22512e-06)
(1.51165e-06 1.85581e-07 -1.03505e-05)
(2.18278e-07 2.17977e-07 -9.74414e-06)
(3.30131e-08 2.29011e-07 -9.66909e-06)
(6.09505e-09 2.29945e-07 -9.67121e-06)
(2.59672e-09 2.30854e-07 -9.672e-06)
(1.81019e-09 2.31073e-07 -9.67209e-06)
(1.37202e-09 2.30618e-07 -9.67208e-06)
(1.0485e-09 2.30762e-07 -9.67206e-06)
(8.59711e-10 2.30918e-07 -9.67195e-06)
(4.97521e-10 2.30724e-07 -9.67191e-06)
(3.63965e-10 2.31189e-07 -9.67249e-06)
(3.66855e-10 2.31437e-07 -9.672e-06)
(-4.94117e-11 2.30832e-07 -9.6719e-06)
(-3.579e-12 2.30493e-07 -9.67245e-06)
(1.4909e-10 2.30959e-07 -9.67195e-06)
(-2.47744e-10 2.30836e-07 -9.67194e-06)
(-4.50032e-10 2.2992e-07 -9.67214e-06)
(-5.14139e-10 2.32499e-07 -9.6726e-06)
(-5.49491e-10 2.30951e-07 -9.67256e-06)
(-5.84839e-10 2.30951e-07 -9.67259e-06)
(-8.7254e-10 2.30814e-07 -9.67201e-06)
(-1.37663e-09 2.30755e-07 -9.67204e-06)
(-1.8416e-09 2.31097e-07 -9.67204e-06)
(-2.46918e-09 2.31596e-07 -9.67202e-06)
(-6.26244e-09 2.30869e-07 -9.67114e-06)
(-3.32084e-08 2.29382e-07 -9.6699e-06)
(-2.18142e-07 2.17535e-07 -9.7442e-06)
(-1.51167e-06 1.85424e-07 -1.03505e-05)
(-1.31687e-05 1.90107e-07 -6.22508e-06)
(1.31932e-05 1.16494e-07 -6.2181e-06)
(1.5177e-06 1.13547e-07 -1.03508e-05)
(2.2093e-07 1.34116e-07 -9.7431e-06)
(3.36145e-08 1.41544e-07 -9.66785e-06)
(6.20353e-09 1.42643e-07 -9.6704e-06)
(2.7391e-09 1.42654e-07 -9.67089e-06)
(1.79304e-09 1.42876e-07 -9.67087e-06)
(1.33951e-09 1.42646e-07 -9.67089e-06)
(1.04016e-09 1.4277e-07 -9.67089e-06)
(8.328e-10 1.42942e-07 -9.67077e-06)
(4.84225e-10 1.42599e-07 -9.6708e-06)
(4.16535e-10 1.42369e-07 -9.67095e-06)
(3.86029e-10 1.43124e-07 -9.67066e-06)
(-1.34378e-11 1.42829e-07 -9.67071e-06)
(4.9241e-12 1.43192e-07 -9.6712e-06)
(9.56689e-11 1.42933e-07 -9.67065e-06)
(-3.7165e-10 1.429e-07 -9.67065e-06)
(-3.76162e-10 1.42813e-07 -9.67126e-06)
(-2.99252e-10 1.43799e-07 -9.67117e-06)
(-6.87602e-10 1.43513e-07 -9.67121e-06)
(-6.81318e-10 1.43378e-07 -9.67132e-06)
(-7.99191e-10 1.42488e-07 -9.67097e-06)
(-1.34395e-09 1.42788e-07 -9.67083e-06)
(-1.78949e-09 1.42895e-07 -9.67081e-06)
(-2.49938e-09 1.43164e-07 -9.6707e-06)
(-6.51254e-09 1.4247e-07 -9.66999e-06)
(-3.40019e-08 1.41428e-07 -9.6687e-06)
(-2.20739e-07 1.33228e-07 -9.74309e-06)
(-1.51748e-06 1.13449e-07 -1.03508e-05)
(-1.31937e-05 1.16721e-07 -6.21772e-06)
(1.32078e-05 6.94436e-08 -6.21383e-06)
(1.521e-06 6.68449e-08 -1.0351e-05)
(2.22652e-07 7.9321e-08 -9.74243e-06)
(3.42192e-08 8.40617e-08 -9.667e-06)
(6.25985e-09 8.51303e-08 -9.66951e-06)
(2.66586e-09 8.44442e-08 -9.67033e-06)
(1.80012e-09 8.48236e-08 -9.67013e-06)
(1.32165e-09 8.47338e-08 -9.67015e-06)
(1.04206e-09 8.48347e-08 -9.67014e-06)
(7.98753e-10 8.48965e-08 -9.66993e-06)
(3.85831e-10 8.44502e-08 -9.67025e-06)
(4.69044e-10 8.50316e-08 -9.67042e-06)
(4.81026e-10 8.50411e-08 -9.66989e-06)
(-4.48563e-11 8.48708e-08 -9.66998e-06)
(1.02481e-11 8.43353e-08 -9.67044e-06)
(1.25442e-10 8.48088e-08 -9.66978e-06)
(-2.66577e-10 8.49235e-08 -9.66977e-06)
(-3.2998e-10 8.57257e-08 -9.67024e-06)
(-3.86083e-10 8.54462e-08 -9.67e-06)
(-5.99418e-10 8.46167e-08 -9.67041e-06)
(-7.35287e-10 8.60581e-08 -9.67012e-06)
(-9.28612e-10 8.40069e-08 -9.67018e-06)
(-1.29723e-09 8.48823e-08 -9.67e-06)
(-1.76555e-09 8.47975e-08 -9.67008e-06)
(-2.55488e-09 8.49881e-08 -9.66994e-06)
(-6.60737e-09 8.39786e-08 -9.66915e-06)
(-3.45816e-08 8.51327e-08 -9.6677e-06)
(-2.22536e-07 7.93011e-08 -9.74275e-06)
(-1.52077e-06 6.67395e-08 -1.03509e-05)
(-1.32078e-05 6.89321e-08 -6.21344e-06)
(1.32158e-05 3.56218e-08 -6.21141e-06)
(1.52291e-06 3.49474e-08 -1.03511e-05)
(2.23683e-07 4.16435e-08 -9.74206e-06)
(3.4529e-08 4.41843e-08 -9.66644e-06)
(6.22564e-09 4.37921e-08 -9.66939e-06)
(2.71011e-09 4.38188e-08 -9.66987e-06)
(1.84811e-09 4.4636e-08 -9.66971e-06)
(1.31529e-09 4.4626e-08 -9.66974e-06)
(1.02229e-09 4.46962e-08 -9.66972e-06)
(7.31101e-10 4.46344e-08 -9.66965e-06)
(5.16689e-10 4.38737e-08 -9.6698e-06)
(5.41146e-10 4.55597e-08 -9.66973e-06)
(3.69158e-10 4.48444e-08 -9.66943e-06)
(-1.67695e-10 4.47332e-08 -9.66956e-06)
(-2.04253e-11 4.46983e-08 -9.67023e-06)
(2.30007e-10 4.44463e-08 -9.6696e-06)
(-1.80581e-10 4.47178e-08 -9.66944e-06)
(-2.7821e-10 4.51125e-08 -9.66985e-06)
(-5.10896e-10 4.4976e-08 -9.66936e-06)
(-5.60401e-10 4.50001e-08 -9.67011e-06)
(-7.74377e-10 4.52812e-08 -9.66961e-06)
(-9.95395e-10 4.45554e-08 -9.67017e-06)
(-1.19624e-09 4.46918e-08 -9.66947e-06)
(-1.758e-09 4.45013e-08 -9.66975e-06)
(-2.66874e-09 4.47469e-08 -9.66952e-06)
(-6.52418e-09 4.45401e-08 -9.66908e-06)
(-3.46332e-08 4.5505e-08 -9.66695e-06)
(-2.23727e-07 4.24989e-08 -9.74216e-06)
(-1.52274e-06 3.47291e-08 -1.03511e-05)
(-1.32158e-05 3.61796e-08 -6.21107e-06)
(1.32192e-05 1.13797e-08 -6.21033e-06)
(1.5239e-06 1.08308e-08 -1.03511e-05)
(2.24142e-07 1.29241e-08 -9.74192e-06)
(3.45055e-08 1.36171e-08 -9.66639e-06)
(6.15876e-09 1.32215e-08 -9.66934e-06)
(2.86166e-09 1.38731e-08 -9.67e-06)
(1.96344e-09 1.38513e-08 -9.66953e-06)
(1.3166e-09 1.38722e-08 -9.66956e-06)
(1.00909e-09 1.39076e-08 -9.66954e-06)
(6.07169e-10 1.38826e-08 -9.66954e-06)
(5.69415e-10 1.3899e-08 -9.66994e-06)
(6.65688e-10 1.41623e-08 -9.66966e-06)
(3.31135e-10 1.38746e-08 -9.66914e-06)
(-8.72559e-11 1.39515e-08 -9.66938e-06)
(-6.033e-11 1.44432e-08 -9.66989e-06)
(1.41469e-10 1.34881e-08 -9.66971e-06)
(-1.20328e-10 1.38807e-08 -9.66921e-06)
(-2.65252e-10 1.40237e-08 -9.66946e-06)
(-4.09188e-10 1.39803e-08 -9.6693e-06)
(-5.42617e-10 1.48774e-08 -9.66956e-06)
(-8.04699e-10 1.41239e-08 -9.66936e-06)
(-1.02308e-09 1.43712e-08 -9.6699e-06)
(-1.28895e-09 1.38463e-08 -9.66942e-06)
(-1.73659e-09 1.34924e-08 -9.66976e-06)
(-2.56125e-09 1.39034e-08 -9.66932e-06)
(-6.49612e-09 1.43691e-08 -9.66873e-06)
(-3.48063e-08 1.41357e-08 -9.66668e-06)
(-2.24342e-07 1.33653e-08 -9.74206e-06)
(-1.52363e-06 1.03065e-08 -1.03514e-05)
(-1.32193e-05 1.1233e-08 -6.21007e-06)
(1.32195e-05 -1.03516e-08 -6.21014e-06)
(1.52372e-06 -1.08866e-08 -1.03511e-05)
(2.24124e-07 -1.30308e-08 -9.7419e-06)
(3.45273e-08 -1.39523e-08 -9.66645e-06)
(6.30105e-09 -1.30869e-08 -9.66926e-06)
(2.83602e-09 -1.31216e-08 -9.6697e-06)
(1.85263e-09 -1.40167e-08 -9.66954e-06)
(1.32047e-09 -1.39781e-08 -9.66954e-06)
(1.0092e-09 -1.39586e-08 -9.66954e-06)
(7.09568e-10 -1.39478e-08 -9.66956e-06)
(5.56817e-10 -1.31638e-08 -9.66965e-06)
(5.31012e-10 -1.41984e-08 -9.66969e-06)
(3.39201e-10 -1.4236e-08 -9.66935e-06)
(-5.38142e-11 -1.39238e-08 -9.66937e-06)
(-1.15745e-10 -1.43116e-08 -9.66988e-06)
(1.15588e-10 -1.4758e-08 -9.6697e-06)
(-6.52081e-11 -1.40674e-08 -9.66934e-06)
(-2.31245e-10 -1.41038e-08 -9.66945e-06)
(-3.53063e-10 -1.39128e-08 -9.66931e-06)
(-5.44635e-10 -1.35241e-08 -9.6696e-06)
(-8.55419e-10 -1.39108e-08 -9.66936e-06)
(-1.03395e-09 -1.4375e-08 -9.6699e-06)
(-1.32975e-09 -1.39896e-08 -9.66948e-06)
(-1.73307e-09 -1.47957e-08 -9.66972e-06)
(-2.50621e-09 -1.40291e-08 -9.66933e-06)
(-6.51419e-09 -1.44848e-08 -9.66861e-06)
(-3.48038e-08 -1.41361e-08 -9.66667e-06)
(-2.24536e-07 -1.27579e-08 -9.74185e-06)
(-1.52371e-06 -1.19722e-08 -1.03512e-05)
(-1.3219e-05 -1.12737e-08 -6.21011e-06)
(1.32161e-05 -3.61454e-08 -6.21155e-06)
(1.52281e-06 -3.50393e-08 -1.03511e-05)
(2.23635e-07 -4.18115e-08 -9.74206e-06)
(3.45976e-08 -4.46941e-08 -9.66671e-06)
(6.3744e-09 -4.37876e-08 -9.66912e-06)
(2.65116e-09 -4.43256e-08 -9.66992e-06)
(1.79393e-09 -4.47997e-08 -9.66974e-06)
(1.33086e-09 -4.47496e-08 -9.66972e-06)
(1.02657e-09 -4.4712e-08 -9.66973e-06)
(7.5849e-10 -4.46848e-08 -9.66969e-06)
(4.82362e-10 -4.43936e-08 -9.66988e-06)
(4.3861e-10 -4.55686e-08 -9.6698e-06)
(3.97007e-10 -4.52411e-08 -9.66982e-06)
(-8.64401e-11 -4.46722e-08 -9.66951e-06)
(-2.12874e-10 -4.44508e-08 -9.67016e-06)
(1.73677e-10 -4.46037e-08 -9.67008e-06)
(3.70482e-12 -4.48261e-08 -9.66959e-06)
(-1.96184e-10 -4.52075e-08 -9.66984e-06)
(-3.06166e-10 -4.47958e-08 -9.66933e-06)
(-5.63686e-10 -4.45737e-08 -9.66962e-06)
(-9.60202e-10 -4.48224e-08 -9.66954e-06)
(-1.03465e-09 -4.45493e-08 -9.67018e-06)
(-1.3503e-09 -4.47154e-08 -9.66967e-06)
(-1.74601e-09 -4.47129e-08 -9.67021e-06)
(-2.50372e-09 -4.48026e-08 -9.66955e-06)
(-6.52561e-09 -4.47702e-08 -9.66906e-06)
(-3.45787e-08 -4.54284e-08 -9.66689e-06)
(-2.2431e-07 -4.14753e-08 -9.74186e-06)
(-1.52297e-06 -3.49593e-08 -1.03512e-05)
(-1.32149e-05 -3.61874e-08 -6.21117e-06)
(1.3208e-05 -6.97623e-08 -6.21362e-06)
(1.52095e-06 -6.69114e-08 -1.0351e-05)
(2.22563e-07 -7.95971e-08 -9.74253e-06)
(3.43153e-08 -8.49927e-08 -9.66724e-06)
(6.41435e-09 -8.51819e-08 -9.66934e-06)
(2.61053e-09 -8.4709e-08 -9.67014e-06)
(1.76905e-09 -8.4928e-08 -9.67018e-06)
(1.34452e-09 -8.48654e-08 -9.67015e-06)
(1.06661e-09 -8.48166e-08 -9.67014e-06)
(7.83723e-10 -8.48546e-08 -9.6699e-06)
(3.23264e-10 -8.47364e-08 -9.67011e-06)
(3.46526e-10 -8.49678e-08 -9.6705e-06)
(5.26779e-10 -8.57878e-08 -9.67023e-06)
(1.17358e-10 -8.48851e-08 -9.66979e-06)
(-7.50978e-11 -8.38538e-08 -9.67017e-06)
(2.64938e-11 -8.39465e-08 -9.66993e-06)
(-2.0422e-10 -8.49861e-08 -9.67e-06)
(-1.89131e-10 -8.58299e-08 -9.67026e-06)
(-2.35006e-10 -8.51229e-08 -9.66974e-06)
(-5.67802e-10 -8.48475e-08 -9.66997e-06)
(-8.45277e-10 -8.51387e-08 -9.66996e-06)
(-1.01586e-09 -8.40016e-08 -9.67017e-06)
(-1.35918e-09 -8.48076e-08 -9.67008e-06)
(-1.75444e-09 -8.39912e-08 -9.6703e-06)
(-2.51599e-09 -8.49095e-08 -9.67e-06)
(-6.58672e-09 -8.41596e-08 -9.66919e-06)
(-3.44069e-08 -8.50819e-08 -9.66747e-06)
(-2.22923e-07 -7.92171e-08 -9.742e-06)
(-1.52108e-06 -6.57094e-08 -1.0351e-05)
(-1.32072e-05 -6.89139e-08 -6.21348e-06)
(1.31932e-05 -1.1668e-07 -6.218e-06)
(1.51766e-06 -1.13543e-07 -1.03508e-05)
(2.20757e-07 -1.34562e-07 -9.74342e-06)
(3.37489e-08 -1.41617e-07 -9.66833e-06)
(6.42895e-09 -1.42598e-07 -9.67032e-06)
(2.70015e-09 -1.42798e-07 -9.67081e-06)
(1.7738e-09 -1.42861e-07 -9.67095e-06)
(1.36212e-09 -1.42754e-07 -9.67092e-06)
(1.10158e-09 -1.42718e-07 -9.67088e-06)
(7.90053e-10 -1.42866e-07 -9.67052e-06)
(3.82047e-10 -1.42786e-07 -9.67078e-06)
(2.14423e-10 -1.42156e-07 -9.67093e-06)
(4.16242e-10 -1.42853e-07 -9.67123e-06)
(2.95418e-10 -1.42876e-07 -9.67066e-06)
(6.90157e-12 -1.42312e-07 -9.67098e-06)
(-4.73459e-11 -1.42499e-07 -9.67068e-06)
(-3.83424e-10 -1.43007e-07 -9.67077e-06)
(-2.04422e-10 -1.42908e-07 -9.67129e-06)
(-1.09644e-10 -1.43087e-07 -9.6707e-06)
(-5.63575e-10 -1.42854e-07 -9.67073e-06)
(-7.97038e-10 -1.43393e-07 -9.67082e-06)
(-9.8299e-10 -1.42524e-07 -9.67094e-06)
(-1.35774e-09 -1.42741e-07 -9.67083e-06)
(-1.76865e-09 -1.4234e-07 -9.67109e-06)
(-2.53579e-09 -1.42865e-07 -9.67076e-06)
(-6.50842e-09 -1.42594e-07 -9.67006e-06)
(-3.39058e-08 -1.41305e-07 -9.66854e-06)
(-2.20942e-07 -1.34024e-07 -9.74281e-06)
(-1.51763e-06 -1.12928e-07 -1.03511e-05)
(-1.31934e-05 -1.16705e-07 -6.21772e-06)
(1.31682e-05 -1.88989e-07 -6.22511e-06)
(1.51159e-06 -1.85483e-07 -1.03503e-05)
(2.18255e-07 -2.18719e-07 -9.74439e-06)
(3.31623e-08 -2.28257e-07 -9.66924e-06)
(6.16873e-09 -2.2982e-07 -9.67123e-06)
(2.58835e-09 -2.30938e-07 -9.67199e-06)
(1.80194e-09 -2.30851e-07 -9.67217e-06)
(1.38396e-09 -2.30679e-07 -9.67212e-06)
(1.12753e-09 -2.30659e-07 -9.67205e-06)
(7.79408e-10 -2.30857e-07 -9.67163e-06)
(3.79993e-10 -2.30878e-07 -9.67195e-06)
(3.10515e-10 -2.30723e-07 -9.67221e-06)
(3.71227e-10 -2.30041e-07 -9.6721e-06)
(2.17746e-10 -2.30823e-07 -9.67192e-06)
(2.71315e-11 -2.3054e-07 -9.67203e-06)
(-8.99521e-11 -2.30727e-07 -9.67192e-06)
(-2.76722e-10 -2.31164e-07 -9.67207e-06)
(-2.02553e-10 -2.30019e-07 -9.67217e-06)
(-2.1257e-10 -2.30986e-07 -9.67203e-06)
(-5.96291e-10 -2.30868e-07 -9.67194e-06)
(-7.88989e-10 -2.31928e-07 -9.67237e-06)
(-9.26202e-10 -2.30922e-07 -9.67194e-06)
(-1.34235e-09 -2.30717e-07 -9.67202e-06)
(-1.7898e-09 -2.30489e-07 -9.67211e-06)
(-2.56504e-09 -2.30916e-07 -9.67194e-06)
(-6.27165e-09 -2.30939e-07 -9.67121e-06)
(-3.3138e-08 -2.2885e-07 -9.66947e-06)
(-2.18257e-07 -2.17695e-07 -9.74394e-06)
(-1.51177e-06 -1.85141e-07 -1.03506e-05)
(-1.31686e-05 -1.90117e-07 -6.22504e-06)
(1.31249e-05 -3.04299e-07 -6.23733e-06)
(1.50169e-06 -2.99535e-07 -1.03491e-05)
(2.14451e-07 -3.48856e-07 -9.74589e-06)
(3.22813e-08 -3.64904e-07 -9.67103e-06)
(5.94342e-09 -3.67103e-07 -9.67304e-06)
(2.55714e-09 -3.67919e-07 -9.67371e-06)
(1.85684e-09 -3.67547e-07 -9.67386e-06)
(1.40548e-09 -3.67342e-07 -9.67379e-06)
(1.14187e-09 -3.67347e-07 -9.67368e-06)
(7.53778e-10 -3.67544e-07 -9.67324e-06)
(3.49983e-10 -3.67751e-07 -9.67366e-06)
(3.46991e-10 -3.67906e-07 -9.67379e-06)
(3.59322e-10 -3.67325e-07 -9.67387e-06)
(1.95537e-10 -3.67573e-07 -9.67362e-06)
(3.91198e-11 -3.67344e-07 -9.67367e-06)
(-1.3535e-10 -3.67453e-07 -9.67366e-06)
(-2.18765e-10 -3.68241e-07 -9.67401e-06)
(-1.70966e-10 -3.67171e-07 -9.67394e-06)
(-2.58652e-10 -3.67641e-07 -9.67377e-06)
(-6.86424e-10 -3.67604e-07 -9.67361e-06)
(-8.13664e-10 -3.69582e-07 -9.67427e-06)
(-8.24742e-10 -3.6806e-07 -9.67359e-06)
(-1.3078e-09 -3.67412e-07 -9.67371e-06)
(-1.82285e-09 -3.6726e-07 -9.67371e-06)
(-2.61193e-09 -3.67802e-07 -9.67364e-06)
(-6.1412e-09 -3.68089e-07 -9.67311e-06)
(-3.21117e-08 -3.65026e-07 -9.67117e-06)
(-2.1426e-07 -3.48725e-07 -9.74533e-06)
(-1.502e-06 -2.9913e-07 -1.03495e-05)
(-1.31253e-05 -3.05086e-07 -6.2371e-06)
(1.30507e-05 -4.85827e-07 -6.25651e-06)
(1.486e-06 -4.82113e-07 -1.03469e-05)
(2.08941e-07 -5.55179e-07 -9.74696e-06)
(3.07763e-08 -5.79264e-07 -9.67289e-06)
(5.70057e-09 -5.82123e-07 -9.67493e-06)
(2.57901e-09 -5.82994e-07 -9.6759e-06)
(1.94685e-09 -5.82097e-07 -9.67579e-06)
(1.41369e-09 -5.81933e-07 -9.67579e-06)
(1.13573e-09 -5.82002e-07 -9.67567e-06)
(7.10621e-10 -5.82168e-07 -9.67531e-06)
(3.13588e-10 -5.82655e-07 -9.67586e-06)
(3.65694e-10 -5.83075e-07 -9.67599e-06)
(3.58741e-10 -5.82354e-07 -9.67578e-06)
(2.00369e-10 -5.82338e-07 -9.67565e-06)
(6.70041e-11 -5.82e-07 -9.6757e-06)
(-2.0863e-10 -5.8204e-07 -9.67571e-06)
(-1.89514e-10 -5.8349e-07 -9.67595e-06)
(-9.06044e-11 -5.82007e-07 -9.6758e-06)
(-2.83121e-10 -5.82217e-07 -9.67585e-06)
(-8.67822e-10 -5.82245e-07 -9.67563e-06)
(-8.61854e-10 -5.84001e-07 -9.67639e-06)
(-6.46203e-10 -5.83231e-07 -9.67584e-06)
(-1.2562e-09 -5.82012e-07 -9.67575e-06)
(-1.87581e-09 -5.81902e-07 -9.67572e-06)
(-2.68261e-09 -5.82784e-07 -9.67581e-06)
(-5.8343e-09 -5.83357e-07 -9.67505e-06)
(-3.06301e-08 -5.78871e-07 -9.67309e-06)
(-2.08802e-07 -5.55936e-07 -9.74686e-06)
(-1.48623e-06 -4.81617e-07 -1.0347e-05)
(-1.30508e-05 -4.86628e-07 -6.25667e-06)
(1.29262e-05 -7.73098e-07 -6.28798e-06)
(1.46159e-06 -7.7625e-07 -1.03426e-05)
(2.01338e-07 -8.84844e-07 -9.74894e-06)
(2.88881e-08 -9.1752e-07 -9.67575e-06)
(5.42542e-09 -9.2099e-07 -9.67773e-06)
(2.64743e-09 -9.22233e-07 -9.67916e-06)
(2.07376e-09 -9.206e-07 -9.67844e-06)
(1.4075e-09 -9.20386e-07 -9.67861e-06)
(1.101e-09 -9.20584e-07 -9.67856e-06)
(6.44242e-10 -9.20523e-07 -9.67847e-06)
(2.87085e-10 -9.21577e-07 -9.67907e-06)
(3.80868e-10 -9.22305e-07 -9.67934e-06)
(3.50163e-10 -9.21276e-07 -9.67875e-06)
(2.19901e-10 -9.21066e-07 -9.67853e-06)
(1.20118e-10 -9.20502e-07 -9.67853e-06)
(-3.33424e-10 -9.20453e-07 -9.67853e-06)
(-1.75681e-10 -9.21115e-07 -9.67887e-06)
(6.90005e-11 -9.2056e-07 -9.67859e-06)
(-2.93787e-10 -9.20605e-07 -9.6787e-06)
(-8.92585e-10 -9.20717e-07 -9.67847e-06)
(-9.20607e-10 -9.20901e-07 -9.67914e-06)
(-6.42495e-10 -9.22544e-07 -9.67926e-06)
(-1.19508e-09 -9.20451e-07 -9.67859e-06)
(-1.95243e-09 -9.20378e-07 -9.67856e-06)
(-2.805e-09 -9.21864e-07 -9.67907e-06)
(-5.6008e-09 -9.20981e-07 -9.67789e-06)
(-2.86981e-08 -9.17853e-07 -9.676e-06)
(-2.01155e-07 -8.84902e-07 -9.74891e-06)
(-1.46179e-06 -7.75749e-07 -1.03424e-05)
(-1.29258e-05 -7.74203e-07 -6.28855e-06)
(1.27251e-05 -1.22837e-06 -6.34343e-06)
(1.42588e-06 -1.25138e-06 -1.03402e-05)
(1.91053e-07 -1.40763e-06 -9.75732e-06)
(2.65256e-08 -1.45184e-06 -9.68533e-06)
(5.11493e-09 -1.45581e-06 -9.6871e-06)
(2.72904e-09 -1.45777e-06 -9.68863e-06)
(2.21941e-09 -1.45487e-06 -9.68799e-06)
(1.43872e-09 -1.45473e-06 -9.68798e-06)
(1.07941e-09 -1.45517e-06 -9.68819e-06)
(5.41387e-10 -1.45461e-06 -9.68795e-06)
(2.28872e-10 -1.45653e-06 -9.68821e-06)
(4.0072e-10 -1.45773e-06 -9.68867e-06)
(3.31735e-10 -1.45627e-06 -9.68847e-06)
(2.4416e-10 -1.45583e-06 -9.68803e-06)
(1.93549e-10 -1.45493e-06 -9.68785e-06)
(-2.25123e-10 -1.45478e-06 -9.68783e-06)
(-1.56143e-10 -1.45484e-06 -9.6881e-06)
(4.10266e-11 -1.4549e-06 -9.68793e-06)
(-2.95399e-10 -1.45476e-06 -9.6878e-06)
(-7.81177e-10 -1.4551e-06 -9.68785e-06)
(-9.94787e-10 -1.45551e-06 -9.6887e-06)
(-8.10949e-10 -1.45824e-06 -9.68887e-06)
(-1.12142e-09 -1.45475e-06 -9.6879e-06)
(-2.04703e-09 -1.45472e-06 -9.68792e-06)
(-2.72894e-09 -1.45715e-06 -9.68849e-06)
(-5.39231e-09 -1.45464e-06 -9.68677e-06)
(-2.64849e-08 -1.4507e-06 -9.68517e-06)
(-1.90827e-07 -1.40726e-06 -9.75703e-06)
(-1.42612e-06 -1.25081e-06 -1.03399e-05)
(-1.27243e-05 -1.22994e-06 -6.34357e-06)
(1.24208e-05 -1.94926e-06 -6.45375e-06)
(1.37784e-06 -2.01616e-06 -1.03624e-05)
(1.77669e-07 -2.23444e-06 -9.79661e-06)
(2.35655e-08 -2.2938e-06 -9.72663e-06)
(4.78193e-09 -2.29795e-06 -9.72815e-06)
(2.87632e-09 -2.29876e-06 -9.73011e-06)
(2.4329e-09 -2.29607e-06 -9.72904e-06)
(1.48947e-09 -2.2963e-06 -9.72915e-06)
(1.07196e-09 -2.29719e-06 -9.72985e-06)
(3.35102e-10 -2.29577e-06 -9.72871e-06)
(7.38328e-11 -2.29654e-06 -9.72893e-06)
(4.5199e-10 -2.29847e-06 -9.72871e-06)
(3.60485e-10 -2.29861e-06 -9.72912e-06)
(2.73458e-10 -2.29804e-06 -9.72948e-06)
(2.65485e-10 -2.29661e-06 -9.72885e-06)
(-1.45436e-10 -2.29638e-06 -9.72882e-06)
(-1.15477e-10 -2.29766e-06 -9.72994e-06)