/*--------------------------------*- C++ -*----------------------------------*\
| =========                 |                                                 |
| \\      /  F ield         | OpenFOAM: The Open Source CFD Toolbox           |
|  \\    /   O peration     | Version:  2106                                  |
|   \\  /    A nd           | Website:  www.openfoam.com                      |
|    \\/     M anipulation  |                                                 |
\*---------------------------------------------------------------------------*/
FoamFile
{
    version     2.0;
    format      ascii;
    arch        "LSB;label=32;scalar=64";
    class       volSymmTensorField;
    location    "505";
    object      epsilon;
}
// * * * * * * * * * * * * * * * * * * * * * * * * * * * * * * * * * * * * * //

dimensions      [0 0 0 0 0 0 0];

internalField   nonuniform List<symmTensor> 
9000
(
(-0.0855838 -0.000263698 0.0481658 -0.147121 0.0614105 -0.0253584)
(-0.016774 0.000537713 0.00938659 -0.156477 0.0651303 -0.0697468)
(-0.00192939 0.000335709 0.00256837 -0.166386 0.0691574 -0.0595142)
(-0.000321127 5.06204e-05 0.000454062 -0.167998 0.0700458 -0.0573939)
(-5.54533e-05 -7.92219e-06 4.19287e-05 -0.16808 0.0700726 -0.0574051)
(-4.08131e-06 -2.02284e-06 1.90604e-05 -0.167898 0.0698616 -0.0576768)
(-1.49344e-06 -1.69725e-08 2.59341e-05 -0.168023 0.0700254 -0.0575608)
(-4.9129e-08 -5.91131e-06 7.58203e-06 -0.167892 0.0698632 -0.0576754)
(-9.5162e-07 6.45366e-06 3.0849e-05 -0.16789 0.06986 -0.0576822)
(-6.53682e-06 6.64453e-06 -7.87392e-06 -0.168064 0.0700476 -0.0574636)
(2.40954e-06 -6.24136e-06 -4.93096e-05 -0.167946 0.0699307 -0.0575891)
(7.81882e-06 -5.33698e-07 3.91965e-05 -0.167765 0.0697406 -0.0578274)
(-4.55659e-06 5.43939e-06 5.83112e-05 -0.168054 0.0700362 -0.05749)
(-4.28845e-06 8.19848e-07 -3.03914e-05 -0.168071 0.070045 -0.0574788)
(3.45547e-06 8.60929e-07 1.85602e-06 -0.167959 0.0699397 -0.0575726)
(-2.60913e-06 -1.19175e-06 3.05186e-05 -0.168067 0.0700497 -0.0574638)
(-2.13207e-06 3.31945e-07 -3.61262e-05 -0.168069 0.0700439 -0.057484)
(5.41863e-08 7.53914e-07 -2.75841e-06 -0.167962 0.0699416 -0.057565)
(-2.14108e-06 -6.65798e-06 -2.417e-05 -0.168056 0.0700411 -0.0574795)
(4.61537e-06 -6.37315e-06 -2.60448e-05 -0.167777 0.0697494 -0.0577933)
(2.71592e-06 5.80529e-06 4.00183e-05 -0.167877 0.0698534 -0.0577073)
(-5.71036e-06 6.52197e-06 6.99282e-06 -0.168063 0.0700409 -0.0574795)
(-3.54977e-06 -5.88837e-06 -3.191e-05 -0.168067 0.0700497 -0.0574625)
(-4.53413e-08 -8.17169e-07 -2.69091e-05 -0.167903 0.0698671 -0.0576632)
(-7.93808e-06 1.64388e-06 -2.5408e-05 -0.168054 0.070035 -0.0574904)
(-5.40205e-05 1.92248e-06 -9.51566e-05 -0.167914 0.0698919 -0.0576012)
(-0.000314607 -4.56822e-05 -0.000442446 -0.167868 0.0699213 -0.0575353)
(-0.00192999 -0.000335502 -0.0025308 -0.166382 0.069146 -0.0595399)
(-0.0167768 -0.000536773 -0.00938495 -0.156475 0.0651293 -0.0697481)
(-0.0855831 0.000263636 -0.0481668 -0.14712 0.0614061 -0.0253636)
(-0.072405 -1.14156e-05 0.0464829 -0.0980753 0.0681869 -0.128984)
(-0.0163981 0.000682412 0.00802803 -0.103198 0.071751 -0.175004)
(-0.00180235 0.000432622 0.0015453 -0.109234 0.0762364 -0.17132)
(-0.000206524 7.09331e-05 0.000231899 -0.1104 0.0773938 -0.170638)
(-2.74911e-05 -6.31417e-06 3.42494e-05 -0.110423 0.0774269 -0.170684)
(-4.65581e-06 -3.23822e-06 3.24437e-05 -0.110204 0.0773607 -0.170698)
(-2.2393e-06 5.28241e-07 2.61006e-05 -0.110371 0.0773723 -0.170708)
(-1.5667e-06 -1.71406e-06 -2.92144e-06 -0.11018 0.077366 -0.170694)
(-7.83342e-07 2.05943e-06 3.36942e-05 -0.110182 0.0773591 -0.170701)
(-1.19034e-06 7.2394e-06 3.32823e-05 -0.110396 0.0773857 -0.170705)
(-4.63874e-07 3.34742e-06 -1.19075e-05 -0.110299 0.077561 -0.170675)
(6.86197e-08 -5.87342e-06 3.77542e-06 -0.110079 0.0775259 -0.170664)
(-1.04666e-06 -7.00296e-06 2.32291e-05 -0.110395 0.0773688 -0.170708)
(-7.36426e-07 6.27974e-06 1.5906e-06 -0.110372 0.0772334 -0.170689)
(1.56132e-07 3.74556e-06 -1.46673e-06 -0.110311 0.0775744 -0.170678)
(-3.48131e-07 -9.01699e-06 -1.96541e-06 -0.1104 0.0773904 -0.170708)
(-2.04677e-07 5.15911e-06 -5.67486e-07 -0.110371 0.0772321 -0.170691)
(-1.32281e-07 3.81198e-06 -3.0596e-06 -0.110315 0.0775754 -0.170673)
(-7.37789e-07 -2.1353e-06 -2.40048e-05 -0.110386 0.077376 -0.170709)
(-8.10189e-07 -1.91152e-06 -2.72744e-05 -0.110086 0.0775458 -0.170663)
(-8.24279e-07 -4.15384e-06 5.18615e-06 -0.110166 0.0773469 -0.170689)
(-9.71582e-07 1.91599e-06 5.33875e-06 -0.110406 0.0773753 -0.170712)
(-1.17897e-06 -1.09681e-06 -3.74011e-05 -0.110398 0.0773902 -0.170707)
(-1.70112e-06 -1.74164e-06 -2.32001e-05 -0.110197 0.0773685 -0.170692)
(-5.33609e-06 3.41457e-06 -3.00908e-05 -0.110399 0.077365 -0.17071)
(-2.78714e-05 9.90955e-06 -5.26735e-05 -0.110215 0.0774104 -0.170668)
(-0.000206307 -7.34535e-05 -0.00021158 -0.110289 0.0775571 -0.170606)
(-0.00180248 -0.000437615 -0.00154735 -0.109198 0.0760763 -0.171319)
(-0.0163981 -0.00067908 -0.00803063 -0.103196 0.0717489 -0.175002)
(-0.0724039 1.14055e-05 -0.0464834 -0.098079 0.0681767 -0.128984)
(-0.0763065 0.00117266 0.0467497 -0.0575559 0.0581694 -0.153399)
(-0.016524 0.000871292 0.00786795 -0.0602178 0.0606501 -0.201965)
(-0.00180462 0.000519433 0.00137069 -0.0633665 0.0647201 -0.199928)
(-0.000186703 9.81787e-05 0.000171599 -0.0641024 0.0658966 -0.199627)
(-1.86707e-05 -8.70011e-07 5.78658e-05 -0.0641046 0.06594 -0.199687)
(-4.84844e-06 -5.11429e-06 3.57723e-05 -0.0639993 0.06605 -0.199647)
(-2.15968e-06 2.21437e-06 2.51744e-05 -0.0640755 0.0658797 -0.199695)
(-2.3699e-06 4.48732e-06 2.17386e-05 -0.0639932 0.0661481 -0.199665)
(-1.53502e-06 -2.85635e-06 7.35941e-06 -0.0640017 0.0661409 -0.199669)
(1.19093e-06 -2.74826e-06 8.69952e-06 -0.0640779 0.0659014 -0.1997)
(-7.52276e-07 3.26006e-06 1.79947e-05 -0.0640666 0.0658766 -0.199685)
(-3.43678e-06 -2.68096e-06 4.18125e-06 -0.0639788 0.0661234 -0.199647)
(-3.05349e-07 -3.46476e-06 -2.04612e-05 -0.0640577 0.0657919 -0.199655)
(1.42104e-06 3.80754e-06 3.5277e-07 -0.0640095 0.0659046 -0.199681)
(-9.02467e-07 5.13045e-07 1.20629e-05 -0.0640716 0.0658926 -0.199689)
(-8.97267e-08 -1.07373e-06 -1.68957e-05 -0.0640799 0.0659077 -0.199701)
(1.08076e-06 4.51329e-07 4.61705e-07 -0.0640091 0.0659031 -0.199684)
(3.41357e-07 2.94862e-07 1.19883e-05 -0.0640736 0.0658917 -0.199689)
(-3.91258e-07 2.35045e-06 3.46119e-06 -0.0640717 0.0658916 -0.199699)
(-3.12924e-06 2.8125e-06 -2.19681e-07 -0.0639825 0.0661278 -0.199651)
(-2.76032e-06 -5.5221e-06 -2.08791e-05 -0.0639837 0.0661423 -0.199655)
(1.04734e-06 -2.56164e-06 -2.29059e-05 -0.0640685 0.0658001 -0.199682)
(5.12127e-08 5.07645e-06 -1.27183e-05 -0.0640778 0.0659078 -0.199702)
(-2.5037e-06 -3.97856e-06 -2.12441e-05 -0.064012 0.0661474 -0.199666)
(-4.18815e-06 4.03087e-06 -3.08119e-05 -0.0640724 0.0657895 -0.199675)
(-2.03759e-05 4.60534e-06 -4.78138e-05 -0.0640245 0.0661882 -0.199649)
(-0.000188902 -0.000102346 -0.000191134 -0.0640797 0.0658595 -0.199609)
(-0.00180368 -0.000519191 -0.00137762 -0.0632935 0.0647005 -0.199916)
(-0.0165228 -0.000871837 -0.00785742 -0.0602157 0.0606482 -0.201962)
(-0.0763037 -0.00117243 -0.0467494 -0.0575653 0.0581566 -0.1534)
(-0.0818799 0.00181543 0.0483726 -0.0351681 0.0409124 -0.154288)
(-0.0170833 0.0008801 0.00814056 -0.0372337 0.0422693 -0.205377)
(-0.00186653 0.000494853 0.00149033 -0.0391084 0.0456106 -0.203492)
(-0.0002066 0.0001004 0.000192133 -0.0396313 0.0464888 -0.203202)
(-2.04417e-05 -7.58297e-07 4.29899e-05 -0.0396407 0.0465352 -0.203268)
(-3.9671e-06 -6.71625e-06 3.62921e-05 -0.0395818 0.0464322 -0.203234)
(-2.28773e-06 1.29964e-06 3.3627e-05 -0.0396063 0.0464202 -0.203262)
(-2.23203e-06 1.54739e-06 1.8682e-05 -0.0396234 0.0465047 -0.203285)
(-1.11295e-06 5.06658e-07 1.18932e-05 -0.0396178 0.0464312 -0.203247)
(7.50861e-07 3.70498e-07 1.10754e-05 -0.0396158 0.0465046 -0.203278)
(-1.26814e-06 -1.94889e-06 1.42068e-05 -0.039611 0.0464916 -0.203274)
(-2.99961e-06 7.7262e-07 -5.09529e-06 -0.0396156 0.0464831 -0.203251)
(2.61412e-07 5.92636e-06 -4.08481e-06 -0.0395704 0.0465062 -0.203257)
(9.67434e-07 9.99063e-07 1.01814e-05 -0.0395913 0.0466706 -0.203283)
(-1.0446e-06 -3.4857e-06 -7.60076e-07 -0.0396088 0.0465057 -0.203277)
(8.8441e-08 4.08913e-06 -3.68443e-06 -0.0396172 0.0465113 -0.203281)
(8.85264e-07 -6.18294e-07 5.33783e-08 -0.039592 0.046669 -0.203287)
(5.33176e-08 -4.21502e-06 1.85703e-07 -0.0396089 0.0465051 -0.203278)
(-6.62049e-07 -1.55225e-06 -7.76331e-07 -0.0396126 0.0464957 -0.203256)
(-2.7748e-06 -7.46321e-07 -5.01661e-06 -0.0396172 0.0464934 -0.203277)
(-2.25527e-06 1.11708e-06 -2.57116e-05 -0.0396189 0.0464949 -0.203259)
(9.05012e-07 1.55836e-06 -1.9322e-05 -0.0395808 0.0464993 -0.20325)
(-4.00184e-07 -1.28614e-06 -6.58043e-06 -0.0396132 0.0465131 -0.203283)
(-2.38234e-06 -3.84897e-06 -3.06027e-05 -0.0396225 0.046435 -0.203269)
(-3.31089e-06 4.84621e-06 -3.12495e-05 -0.0395752 0.0464227 -0.203227)
(-2.16774e-05 1.67798e-07 -3.66315e-05 -0.0396484 0.0465342 -0.203263)
(-0.000208724 -9.76706e-05 -0.000193868 -0.0396178 0.0464634 -0.203192)
(-0.00186639 -0.000492436 -0.00149801 -0.0390845 0.045753 -0.203465)
(-0.0170813 -0.000885461 -0.00814423 -0.0372322 0.0422678 -0.205374)
(-0.0818841 -0.00181471 -0.0483707 -0.0351586 0.0408355 -0.154273)
(-0.0860606 0.00177843 0.0503731 -0.0220593 0.0263864 -0.15228)
(-0.017768 0.000770605 0.00855432 -0.023579 0.0267756 -0.205727)
(-0.00195004 0.000412387 0.00166151 -0.0249327 0.0293933 -0.203765)
(-0.000234462 8.62563e-05 0.00021248 -0.0252877 0.029962 -0.203434)
(-2.57568e-05 5.38913e-06 4.20191e-05 -0.0252889 0.029952 -0.203494)
(-3.64751e-06 -4.7031e-06 2.48562e-05 -0.0252449 0.0300966 -0.203525)
(-1.92012e-06 -2.81163e-06 3.24895e-05 -0.0252456 0.0299198 -0.203502)
(-1.98476e-06 2.23984e-06 1.75185e-05 -0.0252832 0.0299947 -0.203527)
(-6.18412e-07 -1.47407e-07 1.31143e-05 -0.025257 0.0299961 -0.203515)
(6.53116e-08 -2.17172e-06 2.05301e-05 -0.0252861 0.0299847 -0.203501)
(-1.46091e-06 -2.03886e-06 1.17771e-05 -0.025268 0.0299242 -0.203504)
(-2.21014e-06 3.98639e-06 3.09998e-06 -0.0252838 0.0299855 -0.203509)
(8.66676e-08 4.90926e-06 -3.11717e-06 -0.0252736 0.0300831 -0.203528)
(6.54553e-07 -1.24031e-06 1.99122e-06 -0.0253007 0.0300108 -0.203524)
(-9.61826e-07 -2.14923e-06 7.67794e-07 -0.0252783 0.0299886 -0.203518)
(-5.71756e-08 2.52863e-06 -4.39528e-06 -0.0252886 0.02999 -0.203519)
(8.44346e-07 -3.38556e-07 -5.82293e-07 -0.0253013 0.0300093 -0.203527)
(-2.15426e-07 -3.42388e-06 1.52353e-06 -0.0252778 0.0299881 -0.20352)
(-9.89892e-07 -1.70773e-06 -2.71318e-06 -0.0252856 0.0299833 -0.20349)
(-1.92047e-06 -1.06341e-07 -6.93381e-06 -0.0252825 0.0299875 -0.203521)
(-1.55989e-06 2.74638e-06 -1.40107e-05 -0.0252829 0.0299932 -0.203516)
(-7.47186e-08 1.8614e-06 -1.69495e-05 -0.0252611 0.0300333 -0.203517)
(-1.02559e-06 -1.17812e-06 -2.50125e-05 -0.0252797 0.0299928 -0.203524)
(-1.55329e-06 -1.00808e-06 -3.05368e-05 -0.0252643 0.0299917 -0.203516)
(-2.98816e-06 2.48319e-06 -2.11469e-05 -0.0252409 0.0300244 -0.203505)
(-2.67323e-05 -4.81351e-06 -3.72167e-05 -0.0253037 0.0300115 -0.203503)
(-0.000236078 -8.63959e-05 -0.000214576 -0.0252861 0.0299442 -0.203423)
(-0.00195012 -0.000409534 -0.0016662 -0.0249497 0.0294071 -0.20376)
(-0.017765 -0.000771736 -0.00856687 -0.0235783 0.026774 -0.205726)
(-0.0860675 -0.00177644 -0.0503605 -0.0220274 0.0263765 -0.152271)
(-0.0887452 0.00139825 0.0521215 -0.0139514 0.0164683 -0.151254)
(-0.0183649 0.000609045 0.00895543 -0.0148833 0.0163791 -0.206541)
(-0.00203153 0.000319797 0.001814 -0.0159403 0.0181865 -0.204479)
(-0.000259237 7.36724e-05 0.000235268 -0.0161933 0.0187149 -0.204176)
(-3.11277e-05 7.86525e-06 4.98121e-05 -0.0161821 0.0187557 -0.204246)
(-4.14933e-06 -2.49246e-06 3.09225e-05 -0.0161997 0.0188351 -0.204284)
(-1.56226e-06 -3.84415e-06 2.49439e-05 -0.0161547 0.0187612 -0.204263)
(-1.77262e-06 1.53517e-06 2.44258e-05 -0.0161947 0.0187491 -0.204271)
(-1.04498e-06 -1.66258e-06 1.30336e-05 -0.0161872 0.0188202 -0.204282)
(-2.14338e-07 -2.84341e-06 4.82688e-06 -0.0161872 0.0186978 -0.204257)
(-9.87564e-07 -1.6197e-06 1.05193e-05 -0.0161666 0.0187382 -0.20426)
(-1.56145e-06 1.48292e-07 1.04138e-05 -0.0161892 0.0186959 -0.204233)
(4.30377e-08 4.83662e-06 -1.13003e-06 -0.0162069 0.0187072 -0.204258)
(2.64431e-07 8.45865e-07 3.17677e-06 -0.0162071 0.0187625 -0.204269)
(-9.90784e-07 -2.55111e-06 9.1988e-07 -0.0161935 0.0187445 -0.204264)
(-9.5391e-08 1.84381e-06 -3.60826e-06 -0.0161911 0.018698 -0.204255)
(5.38967e-07 8.11298e-07 -1.24381e-06 -0.016207 0.0187607 -0.204271)
(-4.05745e-07 -4.22771e-06 1.04243e-07 -0.0161929 0.0187451 -0.204267)
(-8.37384e-07 -1.47962e-06 -3.83216e-06 -0.0161905 0.0186959 -0.204235)
(-1.59191e-06 1.33817e-06 -6.96625e-06 -0.0161995 0.0187435 -0.204266)
(-1.23042e-06 2.96324e-06 -2.12248e-05 -0.0162025 0.0187465 -0.204246)
(9.16985e-08 1.86862e-06 -1.57252e-05 -0.0161835 0.0187562 -0.204269)
(-1.49256e-06 -4.38819e-07 -8.04231e-06 -0.0161934 0.0187479 -0.204272)
(-1.81105e-06 6.59013e-07 -3.17302e-05 -0.0161844 0.0187732 -0.20425)
(-3.0188e-06 4.21939e-07 -2.87483e-05 -0.0161757 0.0187752 -0.204264)
(-3.20734e-05 -8.26545e-06 -3.7563e-05 -0.0162129 0.0187573 -0.204245)
(-0.000260636 -7.23323e-05 -0.000246631 -0.016189 0.0186561 -0.204134)
(-0.00203112 -0.000316535 -0.00181638 -0.0159487 0.0181954 -0.204495)
(-0.0183617 -0.000607609 -0.008958 -0.0148831 0.0163777 -0.206538)
(-0.0887443 -0.0013973 -0.052108 -0.013939 0.0165337 -0.151258)
(-0.0904024 0.00096482 0.0534056 -0.00882151 0.0102395 -0.150975)
(-0.0188012 0.000448117 0.0092861 -0.00929938 0.0099919 -0.207533)
(-0.00209841 0.000237768 0.00192878 -0.0101008 0.0113136 -0.20547)
(-0.000278812 5.82499e-05 0.000276132 -0.0103134 0.0116678 -0.205149)
(-3.64414e-05 6.77589e-06 5.26584e-05 -0.0103208 0.0117616 -0.205217)
(-4.70723e-06 -1.00279e-06 2.18288e-05 -0.0103381 0.0117191 -0.205248)
(-1.18767e-06 -2.68685e-06 2.47198e-05 -0.0103021 0.0117583 -0.205234)
(-1.82667e-06 -1.38328e-06 2.39775e-05 -0.0103195 0.0116986 -0.205246)
(-9.97894e-07 -2.49431e-07 5.22872e-06 -0.0103291 0.011707 -0.205249)
(-2.68078e-07 -1.81383e-07 1.18787e-05 -0.0102977 0.0116966 -0.205243)
(-1.34987e-06 -1.75681e-06 9.06815e-06 -0.0103078 0.0117506 -0.205251)
(-7.83358e-07 -1.74467e-06 -3.78279e-06 -0.010303 0.0116946 -0.205233)
(6.28689e-07 2.8885e-06 8.56928e-06 -0.0103039 0.0116628 -0.205229)
(-4.62114e-07 5.26015e-07 1.04359e-05 -0.0103264 0.0117072 -0.205242)
(-1.12649e-06 -9.09353e-07 -6.73971e-06 -0.0103192 0.0116955 -0.205241)
(2.23996e-07 1.42883e-06 -2.65964e-06 -0.0103008 0.0116961 -0.205238)
(-4.36749e-08 -3.83875e-07 5.82426e-06 -0.0103262 0.0117056 -0.205244)
(-6.94957e-07 -2.67906e-06 -9.42298e-06 -0.0103185 0.0116962 -0.205242)
(-2.2931e-07 -1.92767e-06 -4.312e-06 -0.0103046 0.0116941 -0.205239)
(-1.04719e-06 -8.71289e-07 1.01044e-06 -0.010315 0.0116525 -0.205232)
(-1.09331e-06 4.815e-06 -1.29121e-05 -0.0103219 0.0116582 -0.205215)
(-6.07303e-07 2.97788e-06 -1.44158e-05 -0.0103195 0.0117645 -0.205256)
(-1.84192e-06 -1.34852e-06 -2.34867e-05 -0.0103187 0.011699 -0.205248)
(-1.26973e-06 2.00599e-06 -3.16287e-05 -0.0103111 0.0117079 -0.205241)
(-3.60726e-06 -1.36385e-06 -2.0135e-05 -0.0103066 0.0117272 -0.20524)
(-3.69151e-05 -8.78195e-06 -4.77646e-05 -0.0103231 0.0116603 -0.20521)
(-0.000279641 -5.409e-05 -0.000278881 -0.0103014 0.0116592 -0.205114)
(-0.00209829 -0.000235679 -0.0019249 -0.0101062 0.0113172 -0.205465)
(-0.0187992 -0.000447674 -0.00928895 -0.0093005 0.00998978 -0.207528)
(-0.0903976 -0.000966113 -0.0533999 -0.00882844 0.0102512 -0.150979)
(-0.0914211 0.000612926 0.0542549 -0.00556941 0.00639951 -0.150951)
(-0.0190875 0.000311105 0.00954874 -0.00577013 0.00614836 -0.208325)
(-0.00214862 0.000172187 0.00201647 -0.00638011 0.0071143 -0.206271)
(-0.000293619 4.1695e-05 0.000288194 -0.00653858 0.00732505 -0.205943)
(-3.98989e-05 5.43186e-06 5.49132e-05 -0.00656008 0.00736284 -0.206009)
(-5.29065e-06 1.05525e-06 2.78871e-05 -0.00655882 0.00736516 -0.206042)
(-1.36725e-06 -1.9412e-06 2.30288e-05 -0.00655317 0.00741078 -0.206052)
(-1.50345e-06 -2.09787e-06 1.72769e-05 -0.00654675 0.00735137 -0.206045)
(-8.60466e-07 1.55601e-06 1.23764e-05 -0.00655244 0.00735787 -0.206045)
(-6.49611e-07 -2.57137e-07 1.12069e-05 -0.00653923 0.0074008 -0.20605)
(-1.35806e-06 -2.22139e-06 7.65611e-06 -0.00655061 0.00735543 -0.206043)
(-4.04749e-07 1.40401e-06 -3.53751e-06 -0.0065348 0.00736108 -0.206039)
(6.79179e-07 1.17752e-06 3.04872e-06 -0.00652817 0.00740487 -0.206042)
(-4.88663e-07 -2.36355e-06 1.01446e-05 -0.00655022 0.00735664 -0.20604)
(-1.01051e-06 9.28747e-07 6.19601e-08 -0.00654762 0.00734869 -0.206041)
(-8.47389e-08 1.17447e-06 -1.87002e-06 -0.00654056 0.0073996 -0.206047)
(-2.7145e-07 -1.94863e-06 -1.47939e-06 -0.00654999 0.00735526 -0.206042)
(-7.41045e-07 -1.30095e-06 -3.41678e-06 -0.00654615 0.00734979 -0.206041)
(-4.74001e-07 -4.35967e-07 -1.17197e-05 -0.00653988 0.00735975 -0.20604)
(-3.98805e-07 -1.24631e-06 -1.36489e-05 -0.00653044 0.00734768 -0.206034)
(-2.96086e-07 2.48542e-06 -4.47973e-06 -0.00652692 0.00731325 -0.206031)
(-9.38795e-07 2.30182e-06 -5.75363e-06 -0.00655755 0.00736361 -0.206046)
(-2.1726e-06 8.73317e-07 -1.67546e-05 -0.00654626 0.00735253 -0.206046)
(-1.6101e-06 3.68244e-06 -3.09439e-05 -0.00654658 0.00740856 -0.206052)
(-4.27997e-06 -1.74869e-06 -3.38468e-05 -0.00654241 0.00741687 -0.206043)
(-3.9713e-05 -9.21396e-06 -4.43671e-05 -0.00653454 0.00735271 -0.206011)
(-0.000294184 -4.0188e-05 -0.00028169 -0.0065333 0.00732853 -0.205934)
(-0.00214897 -0.000170841 -0.00201844 -0.00638436 0.00711485 -0.206263)
(-0.0190866 -0.000310571 -0.00955271 -0.00577246 0.00614703 -0.2083)
(-0.0914178 -0.000614348 -0.0542521 -0.00557376 0.00640848 -0.150955)
(-0.0920484 0.000369808 0.054781 -0.00351637 0.00401484 -0.150975)
(-0.0192629 0.000204603 0.00972577 -0.00357528 0.00381545 -0.208848)
(-0.00218277 0.000122045 0.00208151 -0.00402877 0.00444166 -0.206796)
(-0.00030466 3.0722e-05 0.000302535 -0.00414021 0.0046236 -0.206479)
(-4.2462e-05 4.29664e-06 5.57152e-05 -0.00415784 0.00465203 -0.206561)
(-5.76584e-06 9.05114e-07 2.78766e-05 -0.00415635 0.00465302 -0.206581)
(-1.50138e-06 -1.28166e-06 2.2098e-05 -0.00416159 0.00465742 -0.206586)
(-1.27086e-06 -1.25321e-06 1.71079e-05 -0.00414893 0.00464521 -0.206585)
(-8.2206e-07 8.72258e-07 1.28841e-05 -0.00415191 0.00464861 -0.206584)
(-1.04163e-06 -2.2672e-07 1.10655e-05 -0.00415536 0.00465268 -0.20657)
(-1.0744e-06 -5.78528e-07 -3.87033e-07 -0.0041513 0.0046494 -0.206581)
(1.3995e-07 2.36703e-06 3.39761e-06 -0.00413977 0.0046513 -0.206577)
(1.55e-07 5.88039e-09 1.06494e-05 -0.00415201 0.0046979 -0.206586)
(-6.84236e-07 -3.40167e-06 2.72232e-06 -0.00415072 0.00464884 -0.20658)
(-6.07264e-07 3.33978e-07 1.13758e-07 -0.00415296 0.00464305 -0.206581)
(-2.53637e-07 1.20716e-06 -1.23305e-06 -0.00415515 0.00465181 -0.206571)
(-6.41446e-07 -1.19684e-06 -1.99902e-06 -0.00415017 0.00464789 -0.206583)
(-5.05202e-07 -1.10183e-06 -1.05125e-05 -0.00414914 0.00464375 -0.206582)
(-1.1463e-07 1.03654e-06 -4.96768e-06 -0.00413697 0.00461539 -0.206557)
(-4.62117e-07 1.78185e-06 -7.36521e-06 -0.00414714 0.00468676 -0.206583)
(-2.39422e-07 5.64735e-07 -1.00362e-05 -0.00413018 0.00469067 -0.206584)
(-9.3756e-07 -7.35203e-07 -4.78694e-06 -0.00415535 0.00465415 -0.206583)
(-1.97794e-06 5.84489e-07 -1.68906e-05 -0.0041486 0.00464671 -0.206585)
(-1.56672e-06 3.70112e-06 -2.30499e-05 -0.00415876 0.004656 -0.206585)
(-5.53943e-06 2.39256e-07 -2.71614e-05 -0.00416133 0.00470484 -0.206584)
(-4.25235e-05 -8.43014e-06 -6.12727e-05 -0.00414644 0.0046898 -0.206561)
(-0.000304376 -3.17722e-05 -0.0003027 -0.00412966 0.00458723 -0.206464)
(-0.00218294 -0.000120932 -0.0020756 -0.00403156 0.00444036 -0.206788)
(-0.019263 -0.000203714 -0.00972767 -0.00357605 0.00381264 -0.208843)
(-0.0920472 -0.000370739 -0.0547806 -0.00351704 0.00402128 -0.150978)
(-0.0924339 0.000216737 0.0550944 -0.00222679 0.00251765 -0.150998)
(-0.0193659 0.00013013 0.00984124 -0.00222336 0.00237726 -0.209169)
(-0.00220455 8.45318e-05 0.00212816 -0.00254198 0.00279255 -0.207127)
(-0.000312631 2.19992e-05 0.000313164 -0.00262698 0.0029209 -0.206816)
(-4.4371e-05 3.24124e-06 5.81583e-05 -0.00264501 0.00294255 -0.20689)
(-6.1706e-06 1.03494e-06 2.81349e-05 -0.00264032 0.00294209 -0.206921)
(-1.63595e-06 -7.82792e-07 2.14848e-05 -0.00264297 0.00294542 -0.206924)
(-1.1658e-06 -8.29796e-07 1.65197e-05 -0.00263547 0.00293764 -0.206925)
(-7.90687e-07 2.60189e-07 1.28607e-05 -0.00263685 0.00293956 -0.206924)
(-9.38888e-07 -2.01284e-07 1.08363e-05 -0.00263969 0.00294407 -0.206912)
(-8.89546e-07 1.15667e-06 6.16374e-06 -0.0026372 0.00294052 -0.20692)
(-7.81189e-08 1.46625e-06 3.96371e-06 -0.00263686 0.00298294 -0.206923)
(-2.2526e-07 -1.24561e-06 4.05055e-06 -0.00264616 0.00294942 -0.20692)
(-5.94609e-07 -3.07921e-06 1.81842e-06 -0.00263642 0.00294058 -0.20692)
(-2.30665e-07 3.35439e-08 -1.36562e-07 -0.00263245 0.00290124 -0.206916)
(-2.86687e-07 1.797e-06 -6.83729e-07 -0.00263828 0.00294262 -0.206922)
(-8.61836e-07 -8.87452e-07 -2.18704e-06 -0.0026357 0.00294026 -0.206922)
(-4.17097e-07 1.21427e-06 -1.10762e-05 -0.00263862 0.0029369 -0.206922)
(2.05966e-07 1.43046e-08 -4.71577e-06 -0.00262071 0.00298279 -0.20692)
(-3.79141e-07 2.55277e-07 -1.46e-07 -0.00263767 0.00290588 -0.206914)
(-6.16197e-07 1.34278e-06 -9.27893e-06 -0.00264163 0.00298438 -0.206926)
(-1.01898e-06 -1.46587e-06 -1.12806e-05 -0.00264027 0.00294321 -0.20692)
(-1.61705e-06 4.09922e-07 -1.67025e-05 -0.00263526 0.00293926 -0.206924)
(-1.58387e-06 2.13479e-06 -2.1977e-05 -0.00264193 0.00294519 -0.206923)
(-6.28879e-06 -7.65139e-08 -2.74057e-05 -0.00265158 0.00295148 -0.206918)
(-4.45927e-05 -4.22066e-06 -6.38105e-05 -0.00264331 0.00294236 -0.206897)
(-0.000312043 -2.32024e-05 -0.000313498 -0.00261971 0.00296035 -0.206808)
(-0.00220458 -8.54256e-05 -0.00212179 -0.00254486 0.00278996 -0.207119)
(-0.0193666 -0.00012886 -0.00984289 -0.00222239 0.00237467 -0.209167)
(-0.0924345 -0.000217142 -0.0550957 -0.00222294 0.00252229 -0.151001)
(-0.0926738 0.00012553 0.0552767 -0.001408 0.00153152 -0.15101)
(-0.0194249 8.1508e-05 0.00991306 -0.00139485 0.00147797 -0.209362)
(-0.00221795 5.71132e-05 0.00216077 -0.00161373 0.00174689 -0.20733)
(-0.000318274 1.4698e-05 0.000320709 -0.00167737 0.00183626 -0.207024)
(-4.56246e-05 2.27737e-06 5.81728e-05 -0.0016859 0.00181516 -0.207107)
(-6.42728e-06 1.71309e-06 2.86891e-05 -0.00168897 0.00185073 -0.20713)
(-1.83706e-06 -3.9434e-07 2.10678e-05 -0.0016897 0.00185243 -0.207133)
(-1.14254e-06 -5.24506e-07 1.60136e-05 -0.00168526 0.00184842 -0.207135)
(-7.68462e-07 9.87611e-08 1.24243e-05 -0.00168577 0.0018501 -0.207135)
(-8.2647e-07 -2.43421e-07 1.04117e-05 -0.00168649 0.00185247 -0.207134)
(-7.43618e-07 3.39013e-07 6.60134e-06 -0.0016873 0.00184999 -0.20713)
(-1.96e-07 9.8232e-07 4.64178e-06 -0.00169782 0.00185476 -0.20713)
(-6.20065e-07 -3.04621e-07 3.99224e-06 -0.001692 0.00185644 -0.207128)
(-5.5565e-07 -1.30892e-06 -5.76186e-06 -0.00168578 0.001851 -0.20713)
(2.97753e-07 1.15751e-07 -1.46865e-07 -0.00167404 0.00184804 -0.207126)
(-3.66248e-07 6.41354e-07 6.50992e-06 -0.00168599 0.00185315 -0.207132)
(-8.98684e-07 -1.45458e-06 -2.41956e-06 -0.00168493 0.00185132 -0.207132)
(-3.99593e-07 2.0169e-06 -4.40414e-06 -0.00168148 0.00181447 -0.207128)
(-1.49188e-07 1.41313e-06 -1.11417e-05 -0.00168749 0.0018951 -0.207134)
(-1.0605e-07 -2.07393e-06 -6.41556e-06 -0.0016772 0.0018514 -0.207124)
(-4.84574e-07 5.16337e-08 -2.20862e-06 -0.00169122 0.00182305 -0.207126)
(-1.18768e-06 6.19404e-08 -1.16204e-05 -0.00169025 0.00185081 -0.207129)
(-1.45359e-06 4.28728e-07 -1.64936e-05 -0.00168514 0.00185013 -0.207134)
(-1.63882e-06 1.16854e-06 -2.11664e-05 -0.00168947 0.00185279 -0.207132)
(-6.63126e-06 -3.27445e-07 -2.74538e-05 -0.00169471 0.00185646 -0.207127)
(-4.61089e-05 -3.11186e-06 -5.88776e-05 -0.00169187 0.00185083 -0.207105)
(-0.00031782 -1.68092e-05 -0.000321974 -0.00168386 0.00184099 -0.207014)
(-0.00221769 -5.766e-05 -0.00216116 -0.00161878 0.00174382 -0.207324)
(-0.0194258 -7.89984e-05 -0.00991488 -0.00139388 0.00147613 -0.209362)
(-0.0926716 -0.000124989 -0.0552796 -0.00141231 0.00157272 -0.151018)
(-0.0928203 7.2074e-05 0.0553767 -0.000895749 0.000964939 -0.151021)
(-0.0194584 4.83073e-05 0.0099662 -0.000890519 0.000906643 -0.209478)
(-0.00222613 3.74023e-05 0.00218283 -0.00103992 0.00107701 -0.207455)
(-0.000322089 1.09179e-05 0.000319719 -0.00108712 0.00113754 -0.207152)
(-4.63131e-05 1.45114e-06 5.88575e-05 -0.00108611 0.00114658 -0.207235)
(-6.61573e-06 4.34027e-07 3.55739e-05 -0.00109807 0.00114573 -0.20726)
(-2.09939e-06 -4.40034e-08 2.08552e-05 -0.00109687 0.00114722 -0.207263)
(-1.12933e-06 -2.67975e-07 1.57075e-05 -0.00109413 0.00114547 -0.207265)
(-7.60062e-07 1.97616e-07 1.24004e-05 -0.00109446 0.00114707 -0.207265)
(-8.33897e-07 -3.57409e-07 1.0179e-05 -0.00109516 0.00114929 -0.207264)
(-6.24399e-07 -8.48567e-07 6.76e-06 -0.00109705 0.0011456 -0.20726)
(-1.47293e-07 7.87815e-07 5.09989e-06 -0.00109618 0.00111569 -0.207255)
(-6.44959e-07 7.72938e-07 3.821e-06 -0.00109797 0.00114988 -0.207258)
(-5.71658e-07 6.82977e-08 4.13989e-07 -0.00109471 0.00114762 -0.20726)
(1.6366e-07 1.3018e-07 9.58197e-08 -0.00109618 0.00118145 -0.207261)
(-5.64861e-07 -3.0755e-07 3.13363e-07 -0.00109613 0.00114924 -0.20726)
(-7.07746e-07 -1.60708e-07 -9.42426e-06 -0.00109434 0.00114848 -0.20726)
(1.08596e-07 1.12453e-06 -4.023e-06 -0.00108145 0.00114734 -0.207258)
(-4.6716e-07 1.00552e-06 2.31163e-06 -0.00110289 0.00115554 -0.20726)
(-5.73098e-07 -5.03438e-07 -1.31304e-05 -0.00109751 0.00118353 -0.207259)
(-1.67384e-07 -1.3333e-06 -8.79125e-06 -0.0010867 0.00115259 -0.207254)
(-9.93945e-07 -6.52195e-07 -5.20918e-06 -0.00110106 0.00114587 -0.207259)
(-1.48545e-06 6.03015e-07 -1.62076e-05 -0.00109405 0.00114738 -0.207264)
(-1.73314e-06 5.66894e-07 -2.07784e-05 -0.00109725 0.0011476 -0.207262)
(-7.08458e-06 -6.39999e-07 -2.7652e-05 -0.00109956 0.00114929 -0.207257)
(-4.72537e-05 -2.59569e-06 -6.66143e-05 -0.00110167 0.00114518 -0.207234)
(-0.000321339 -1.20811e-05 -0.000328115 -0.00108187 0.0011063 -0.207136)
(-0.00222522 -3.746e-05 -0.00217688 -0.00103675 0.00104044 -0.207445)
(-0.0194595 -4.64969e-05 -0.00995807 -0.000890134 0.000906175 -0.209477)
(-0.0928159 -7.09151e-05 -0.055385 -0.000908813 0.000964539 -0.151031)
(-0.0929014 4.04046e-05 0.0554439 -0.000606544 0.000609383 -0.151037)
(-0.0194778 2.69256e-05 0.00998155 -0.0005895 0.000534303 -0.209546)
(-0.00223018 2.32397e-05 0.00219719 -0.000693544 0.000638123 -0.20753)
(-0.000324589 7.78646e-06 0.000330576 -0.000730195 0.00067702 -0.207228)
(-4.73299e-05 3.698e-07 6.01297e-05 -0.000741381 0.000715723 -0.207307)
(-6.68959e-06 -3.38762e-07 2.88785e-05 -0.000741267 0.00068018 -0.207339)
(-2.01631e-06 4.23705e-07 2.08754e-05 -0.000736799 0.000681794 -0.207343)
(-1.13709e-06 -8.24745e-08 1.55786e-05 -0.000735151 0.000681386 -0.207344)
(-7.84352e-07 5.50065e-08 1.25708e-05 -0.000735557 0.000682672 -0.207344)
(-9.8435e-07 -6.69747e-07 1.00614e-05 -0.000737306 0.000684045 -0.207333)
(-4.94563e-07 2.2306e-07 1.33305e-09 -0.000740437 0.00068064 -0.20734)
(1.42792e-07 9.1047e-07 5.50778e-06 -0.000726069 0.000684451 -0.207333)
(-7.70851e-07 -1.83895e-07 1.03977e-05 -0.000737095 0.000684184 -0.207338)
(-7.06167e-07 -1.10778e-06 2.28028e-07 -0.000735715 0.000683135 -0.207339)
(2.55448e-07 -1.41547e-07 3.15025e-07 -0.000738703 0.000649105 -0.207336)
(-4.15238e-07 9.44871e-07 5.83038e-07 -0.000738651 0.000683278 -0.207329)
(-6.83133e-07 1.40419e-06 -2.80398e-06 -0.000736368 0.000684031 -0.20733)
(-1.79259e-07 7.59366e-07 -3.62846e-06 -0.000732753 0.000719119 -0.20734)
(-4.04157e-07 -1.62544e-06 -4.27202e-06 -0.000741175 0.000688174 -0.207337)
(-5.23806e-07 9.35923e-07 -6.60418e-06 -0.000738849 0.000650792 -0.207334)
(-4.93791e-07 -8.06292e-07 -8.97794e-06 -0.000735724 0.000722041 -0.207337)
(-8.42914e-07 -1.6176e-06 -1.20598e-05 -0.000734493 0.000647163 -0.207336)
(-1.2554e-06 1.14684e-06 -1.60594e-05 -0.000735725 0.000683453 -0.207341)
(-1.88648e-06 1.97421e-07 -2.07118e-05 -0.000737951 0.000681741 -0.207341)
(-7.26273e-06 -1.2493e-06 -2.785e-05 -0.000738129 0.000683012 -0.207336)
(-4.80401e-05 6.48046e-08 -6.72927e-05 -0.000734474 0.000646358 -0.207309)
(-0.000323892 -5.87545e-06 -0.000339337 -0.000719421 0.000713641 -0.207217)
(-0.00222928 -2.50016e-05 -0.00219145 -0.000680467 0.000637061 -0.207521)
(-0.0194779 -2.74887e-05 -0.00997608 -0.000590397 0.000533967 -0.209544)
(-0.0929013 -3.98016e-05 -0.0554403 -0.000604061 0.000571345 -0.151042)
(-0.0929498 2.08341e-05 0.0554775 -0.00043548 0.000262639 -0.151041)
(-0.0194882 1.53705e-05 0.00999594 -0.000420106 0.000279476 -0.209586)
(-0.00223257 1.25157e-05 0.00220587 -0.000497977 0.000335443 -0.207573)
(-0.000326187 2.68518e-06 0.0003343 -0.000528335 0.000356563 -0.207263)
(-4.77283e-05 -6.53178e-07 5.89666e-05 -0.000539316 0.000323975 -0.20736)
(-6.56629e-06 1.36717e-06 2.92812e-05 -0.000529283 0.000323943 -0.207382)
(-2.09223e-06 1.21785e-06 2.10545e-05 -0.000532292 0.000358925 -0.207388)
(-1.23873e-06 2.61579e-08 1.55589e-05 -0.000531462 0.000359173 -0.207389)
(-8.76287e-07 -1.17422e-07 1.22907e-05 -0.000531953 0.000360067 -0.207389)
(-7.58401e-07 -1.33528e-06 9.47668e-06 -0.000532605 0.000359216 -0.207388)
(-2.84932e-07 1.38244e-06 7.08349e-06 -0.000529134 0.000324781 -0.207383)
(-2.21296e-07 1.46543e-06 5.92837e-06 -0.00053152 0.000396032 -0.207381)
(-1.06326e-06 -1.18193e-06 3.6199e-06 -0.000533749 0.000361593 -0.207382)
(-5.84375e-07 -2.68605e-07 -6.66578e-06 -0.000531894 0.000360557 -0.207384)
(5.96553e-07 -4.799e-07 -1.27159e-07 -0.000524191 0.000360008 -0.20738)
(-2.40234e-07 7.47793e-08 7.29882e-06 -0.000534905 0.000357427 -0.207385)
(-7.62325e-07 1.04814e-06 -2.12479e-06 -0.000532821 0.000360228 -0.207384)
(-4.95473e-07 4.36336e-07 -2.98169e-06 -0.000537765 0.00036259 -0.207385)
(-4.23287e-07 -1.70999e-07 -1.08582e-05 -0.000535994 0.000361941 -0.207373)
(-3.9522e-07 4.41902e-07 -6.47865e-06 -0.000523044 0.00036203 -0.207378)
(-6.52491e-07 -5.93806e-07 -9.47243e-06 -0.000539507 0.000363598 -0.207373)