/*--------------------------------*- C++ -*----------------------------------*\
| =========                 |                                                 |
| \\      /  F ield         | OpenFOAM: The Open Source CFD Toolbox           |
|  \\    /   O peration     | Version:  2106                                  |
|   \\  /    A nd           | Website:  www.openfoam.com                      |
|    \\/     M anipulation  |                                                 |
\*---------------------------------------------------------------------------*/
FoamFile
{
    version     2.0;
    format      ascii;
    arch        "LSB;label=32;scalar=64";
    class       volSymmTensorField;
    location    "505";
    object      sigma;
}
// * * * * * * * * * * * * * * * * * * * * * * * * * * * * * * * * * * * * * //

dimensions      [1 -1 -2 0 0 0 0];

internalField   nonuniform List<symmTensor> 
9000
(
(5.3937e+07 -136032 2.48469e+07 2.21922e+07 3.16794e+07 8.5005e+07)
(9.63416e+07 277386 4.84219e+06 2.42742e+07 3.35983e+07 6.90149e+07)
(1.10954e+08 173180 1.32492e+06 2.61171e+07 3.56757e+07 8.12485e+07)
(1.12755e+08 26113.2 234234 2.62569e+07 3.6134e+07 8.33132e+07)
(1.12971e+08 -4086.76 21629.4 2.62937e+07 3.61478e+07 8.33866e+07)
(1.1298e+08 -1043.51 9832.55 2.63692e+07 3.6039e+07 8.32284e+07)
(1.12978e+08 -8.75548 13378.4 2.63019e+07 3.61235e+07 8.32854e+07)
(1.12987e+08 -3049.43 3911.29 2.6378e+07 3.60398e+07 8.32347e+07)
(1.12984e+08 3329.2 15913.8 2.63764e+07 3.60382e+07 8.32285e+07)
(1.12999e+08 3427.67 -4061.86 2.63041e+07 3.61349e+07 8.3359e+07)
(1.13004e+08 -3219.69 -25437 2.63657e+07 3.60747e+07 8.32949e+07)
(1.12983e+08 -275.315 20220 2.64353e+07 3.59766e+07 8.31482e+07)
(1.12994e+08 2805.98 30080.6 2.63031e+07 3.61291e+07 8.33389e+07)
(1.12991e+08 422.929 -15677.8 2.62918e+07 3.61336e+07 8.33421e+07)
(1.13007e+08 444.121 957.454 2.63617e+07 3.60793e+07 8.33058e+07)
(1.13001e+08 -614.777 15743.4 2.63029e+07 3.6136e+07 8.33592e+07)
(1.12992e+08 171.238 -18636.2 2.62921e+07 3.6133e+07 8.33389e+07)
(1.13006e+08 388.916 -1422.96 2.63604e+07 3.60802e+07 8.33102e+07)
(1.13e+08 -3434.61 -12468.4 2.63072e+07 3.61316e+07 8.33494e+07)
(1.12991e+08 -3287.67 -13435.5 2.64384e+07 3.59811e+07 8.31747e+07)
(1.12982e+08 2994.73 20644 2.6379e+07 3.60348e+07 8.32115e+07)
(1.12993e+08 3364.44 3607.34 2.62989e+07 3.61315e+07 8.33446e+07)
(1.13001e+08 -3037.59 -16461.2 2.63035e+07 3.61361e+07 8.33602e+07)
(1.12988e+08 -421.547 -13881.4 2.6373e+07 3.60418e+07 8.32415e+07)
(1.1299e+08 848.018 -13107 2.63012e+07 3.61284e+07 8.33369e+07)
(1.12959e+08 991.737 -49087.7 2.63662e+07 3.60546e+07 8.32723e+07)
(1.12756e+08 -23565.7 -228241 2.6321e+07 3.60698e+07 8.32377e+07)
(1.10944e+08 -173073 -1.30555e+06 2.61094e+07 3.56699e+07 8.12252e+07)
(9.6339e+07 -276901 -4.84135e+06 2.42739e+07 3.35978e+07 6.90131e+07)
(5.39355e+07 136000 -2.48475e+07 2.21906e+07 3.16771e+07 8.50005e+07)
(4.17513e+07 -5888.87 2.39788e+07 2.8509e+07 3.51751e+07 1.25645e+07)
(7.28737e+07 352031 4.14136e+06 2.80969e+07 3.70136e+07 -8.94495e+06)
(8.60169e+07 223173 797161 3.05967e+07 3.93275e+07 -1.43101e+06)
(8.73501e+07 36591.7 119628 3.05052e+07 3.99246e+07 -568994)
(8.74932e+07 -3257.24 17668 3.05442e+07 3.99417e+07 -541970)
(8.76095e+07 -1670.48 16736.5 3.07619e+07 3.99075e+07 -444800)
(8.75302e+07 272.5 13464.3 3.05949e+07 3.99135e+07 -530767)
(8.76248e+07 -884.22 -1507.06 3.07876e+07 3.99102e+07 -429226)
(8.76221e+07 1062.38 17381.6 3.07839e+07 3.99067e+07 -435505)
(8.75212e+07 3734.54 17169.1 3.05724e+07 3.99204e+07 -538493)
(8.75805e+07 1726.81 -6142.66 3.06817e+07 4.00108e+07 -464086)
(8.76869e+07 -3029.88 1947.6 3.09015e+07 3.99927e+07 -352346)
(8.75205e+07 -3612.57 11983 3.05722e+07 3.99117e+07 -540844)
(8.75401e+07 3239.49 820.53 3.06034e+07 3.98418e+07 -511546)
(8.75741e+07 1932.19 -756.632 3.06685e+07 4.00177e+07 -472329)
(8.75191e+07 -4651.53 -1013.88 3.0568e+07 3.99228e+07 -542681)
(8.75403e+07 2661.39 -292.745 3.06043e+07 3.98412e+07 -512769)
(8.7574e+07 1966.46 -1578.33 3.06665e+07 4.00182e+07 -469990)
(8.75247e+07 -1101.52 -12383.2 3.05809e+07 3.99154e+07 -537100)
(8.76832e+07 -986.081 -14069.9 3.08945e+07 4.0003e+07 -355151)
(8.76348e+07 -2142.81 2675.34 3.08047e+07 3.99004e+07 -416811)
(8.75137e+07 988.385 2754.06 3.05596e+07 3.99151e+07 -549630)
(8.75195e+07 -565.805 -19293.8 3.05697e+07 3.99227e+07 -541348)
(8.76179e+07 -898.448 -11968.1 3.07721e+07 3.99115e+07 -435023)
(8.75139e+07 1761.45 -15522.7 3.05659e+07 3.99097e+07 -546167)
(8.75955e+07 5111.97 -27172.3 3.07541e+07 3.99331e+07 -431228)
(8.74157e+07 -37892 -109146 3.06279e+07 4.00088e+07 -487392)
(8.6034e+07 -225749 -798221 3.06324e+07 3.92449e+07 -1.4131e+06)
(7.28751e+07 -350312 -4.1427e+06 2.80992e+07 3.70126e+07 -8.94277e+06)
(4.17505e+07 5883.69 -2.3979e+07 2.85056e+07 3.51698e+07 1.25629e+07)
(4.53341e+07 604934 2.41165e+07 5.50069e+07 3.00074e+07 5.56512e+06)
(8.00964e+07 449467 4.05878e+06 5.75564e+07 3.12871e+07 -1.55656e+07)
(9.39292e+07 267956 707091 6.21717e+07 3.33867e+07 -8.27531e+06)
(9.53061e+07 50646.8 88521.5 6.23344e+07 3.39936e+07 -7.57789e+06)
(9.54415e+07 -448.806 29850.8 6.2382e+07 3.4016e+07 -7.55985e+06)
(9.55218e+07 -2638.27 18453.6 6.25095e+07 3.40727e+07 -7.46588e+06)
(9.54673e+07 1142.31 12986.5 6.24143e+07 3.39849e+07 -7.54666e+06)
(9.55184e+07 2314.84 11214.2 6.2508e+07 3.41234e+07 -7.48026e+06)
(9.55136e+07 -1473.48 3796.45 6.24983e+07 3.41196e+07 -7.48747e+06)
(9.54672e+07 -1417.72 4487.76 6.24112e+07 3.39961e+07 -7.55108e+06)
(9.54771e+07 1681.74 9282.77 6.24279e+07 3.39833e+07 -7.53279e+06)
(9.55325e+07 -1383.01 2156.95 6.253e+07 3.41106e+07 -7.45596e+06)
(9.54957e+07 -1787.34 -10555.2 6.24509e+07 3.39396e+07 -7.49852e+06)
(9.55074e+07 1964.17 181.981 6.24866e+07 3.39978e+07 -7.50137e+06)
(9.54729e+07 264.661 6222.8 6.24212e+07 3.39915e+07 -7.5389e+06)
(9.54647e+07 -553.896 -8715.86 6.24083e+07 3.39993e+07 -7.55338e+06)
(9.55059e+07 232.824 238.176 6.24854e+07 3.3997e+07 -7.50424e+06)
(9.54732e+07 152.109 6184.31 6.24198e+07 3.39911e+07 -7.53933e+06)
(9.54691e+07 1212.51 1785.5 6.24171e+07 3.3991e+07 -7.5478e+06)
(9.5529e+07 1450.86 -113.325 6.25244e+07 3.41129e+07 -7.46201e+06)
(9.5527e+07 -2848.65 -10770.8 6.25216e+07 3.41204e+07 -7.46636e+06)
(9.54797e+07 -1321.46 -11816.3 6.24286e+07 3.39438e+07 -7.52919e+06)
(9.54654e+07 2618.75 -6560.9 6.241e+07 3.39994e+07 -7.5533e+06)
(9.55094e+07 -2052.39 -10959 6.24893e+07 3.4123e+07 -7.48949e+06)
(9.54758e+07 2079.38 -15894.7 6.24253e+07 3.39384e+07 -7.52708e+06)
(9.54939e+07 2375.72 -24665.3 6.24765e+07 3.4144e+07 -7.48718e+06)
(9.53227e+07 -52796.7 -98598.9 6.23638e+07 3.39745e+07 -7.55078e+06)
(9.39693e+07 -267831 -710665 6.22489e+07 3.33766e+07 -8.22928e+06)
(8.00999e+07 -449748 -4.05335e+06 5.75604e+07 3.12861e+07 -1.55611e+07)
(4.5332e+07 -604815 -2.41163e+07 5.49985e+07 3.00008e+07 5.56084e+06)
(4.97616e+07 936511 2.49536e+07 7.38585e+07 2.11052e+07 1.24092e+07)
(8.85262e+07 454011 4.19941e+06 7.81314e+07 2.18052e+07 -8.60728e+06)
(1.03358e+08 255276 768808 8.41464e+07 2.35288e+07 -652989)
(1.04869e+08 51792.6 99114.4 8.45309e+07 2.39818e+07 150741)
(1.05016e+08 -391.177 22176.9 8.45771e+07 2.40058e+07 168131)
(1.05074e+08 -3464.66 18721.7 8.46573e+07 2.39527e+07 235000)
(1.05052e+08 670.437 17346.9 8.46213e+07 2.39464e+07 197190)
(1.05034e+08 798.243 9637.37 8.45945e+07 2.399e+07 167806)
(1.05055e+08 261.366 6135.25 8.4618e+07 2.39521e+07 207947)
(1.05043e+08 191.126 5713.37 8.46062e+07 2.399e+07 178764)
(1.05045e+08 -1005.36 7328.74 8.46118e+07 2.39833e+07 184021)
(1.05052e+08 398.566 -2628.47 8.46171e+07 2.39789e+07 203611)
(1.05073e+08 3057.19 -2107.2 8.46599e+07 2.39908e+07 220049)
(1.05052e+08 515.379 5252.18 8.46278e+07 2.40756e+07 185161)
(1.05045e+08 -1798.14 -392.095 8.46128e+07 2.39906e+07 182354)
(1.0504e+08 2109.43 -1900.66 8.46031e+07 2.39935e+07 174890)
(1.0505e+08 -318.955 27.5359 8.46254e+07 2.40748e+07 181270)
(1.05045e+08 -2174.37 95.797 8.46126e+07 2.39903e+07 181718)
(1.05053e+08 -800.745 -400.48 8.4619e+07 2.39854e+07 201656)
(1.05039e+08 -384.999 -2587.88 8.46037e+07 2.39842e+07 177487)
(1.05047e+08 576.258 -13263.6 8.46107e+07 2.3985e+07 195012)
(1.05072e+08 803.899 -9967.5 8.46531e+07 2.39873e+07 222113)
(1.05041e+08 -663.47 -3394.6 8.46062e+07 2.39944e+07 175128)
(1.05041e+08 -1985.54 -15786.8 8.46026e+07 2.39541e+07 183589)
(1.05081e+08 2499.98 -16120.4 8.46676e+07 2.39477e+07 245900)
(1.05013e+08 86.5606 -18896.8 8.45709e+07 2.40053e+07 167983)
(1.04878e+08 -50384.6 -100009 8.45479e+07 2.39687e+07 166098)
(1.03381e+08 -254029 -772767 8.41818e+07 2.36023e+07 -616191)
(8.85301e+07 -456776 -4.2013e+06 7.8135e+07 2.18044e+07 -8.60301e+06)
(4.97684e+07 -936142 -2.49526e+07 7.38723e+07 2.10655e+07 1.24255e+07)
(5.26193e+07 917425 2.59856e+07 8.56352e+07 1.36118e+07 1.84589e+07)
(9.39596e+07 397527 4.41286e+06 9.0962e+07 1.38125e+07 -3.00137e+06)
(1.09652e+08 212735 857109 9.77957e+07 1.51629e+07 5.54253e+06)
(1.11312e+08 44496.4 109611 9.83882e+07 1.54563e+07 6.48906e+06)
(1.11488e+08 2780.05 21676.1 9.84554e+07 1.54511e+07 6.52598e+06)
(1.11515e+08 -2426.15 12822.4 9.84943e+07 1.55257e+07 6.52638e+06)
(1.11527e+08 -1450.41 16760.1 9.85048e+07 1.54345e+07 6.54889e+06)
(1.11498e+08 1155.45 9037.14 9.84568e+07 1.54732e+07 6.5077e+06)
(1.11517e+08 -76.0419 6765.2 9.84885e+07 1.54739e+07 6.5321e+06)
(1.11511e+08 -1120.31 10590.7 9.84667e+07 1.5468e+07 6.53223e+06)
(1.11516e+08 -1051.77 6075.36 9.84822e+07 1.54368e+07 6.5369e+06)
(1.11506e+08 2056.43 1599.16 9.84643e+07 1.54684e+07 6.5246e+06)
(1.11504e+08 2532.5 -1608.03 9.84664e+07 1.55187e+07 6.51164e+06)
(1.11494e+08 -639.831 1027.2 9.84421e+07 1.54815e+07 6.50336e+06)
(1.11506e+08 -1108.71 396.076 9.8466e+07 1.547e+07 6.51872e+06)
(1.11501e+08 1304.43 -2267.36 9.84558e+07 1.54707e+07 6.51323e+06)
(1.11493e+08 -174.649 -300.383 9.84403e+07 1.54807e+07 6.50015e+06)
(1.11506e+08 -1766.25 785.932 9.8466e+07 1.54698e+07 6.51759e+06)
(1.11515e+08 -880.955 -1399.63 9.84716e+07 1.54673e+07 6.54241e+06)
(1.11501e+08 -54.8572 -3576.89 9.84601e+07 1.54695e+07 6.5134e+06)
(1.11504e+08 1416.76 -7227.59 9.8462e+07 1.54724e+07 6.51798e+06)
(1.11515e+08 960.225 -8743.63 9.84836e+07 1.54931e+07 6.52781e+06)
(1.11502e+08 -607.747 -12903 9.84621e+07 1.54722e+07 6.51259e+06)
(1.11512e+08 -520.033 -15752.8 9.84802e+07 1.54716e+07 6.5267e+06)
(1.11527e+08 1280.98 -10908.9 9.85077e+07 1.54885e+07 6.54809e+06)
(1.11476e+08 -2483.11 -19198.7 9.84366e+07 1.54818e+07 6.51045e+06)
(1.11317e+08 -44568.4 -110692 9.83943e+07 1.54471e+07 6.50026e+06)
(1.09646e+08 -211263 -859528 9.77814e+07 1.517e+07 5.5397e+06)
(9.39635e+07 -398110 -4.41933e+06 9.09646e+07 1.38117e+07 -2.9984e+06)
(5.26315e+07 -916400 -2.59791e+07 8.56674e+07 1.36067e+07 1.84794e+07)
(5.41919e+07 721306 2.68875e+07 9.27752e+07 8.4954e+06 2.19459e+07)
(9.69921e+07 314184 4.61977e+06 9.87881e+07 8.44939e+06 -81002.1)
(1.13368e+08 164972 935773 1.06193e+08 9.38172e+06 8.93356e+06)
(1.15118e+08 38004.9 121366 1.06898e+08 9.65433e+06 9.92481e+06)
(1.15314e+08 4057.39 25696.2 1.06982e+08 9.67535e+06 9.967e+06)
(1.15314e+08 -1285.77 15951.7 1.06959e+08 9.71633e+06 9.93361e+06)
(1.15347e+08 -1983.05 12867.6 1.07014e+08 9.67822e+06 9.9758e+06)
(1.15325e+08 791.936 12600.4 1.06971e+08 9.67198e+06 9.94973e+06)
(1.15324e+08 -857.665 6723.57 1.06974e+08 9.70864e+06 9.9425e+06)
(1.15336e+08 -1466.81 2490.01 1.06986e+08 9.6455e+06 9.96774e+06)
(1.15343e+08 -835.544 5426.51 1.07004e+08 9.66636e+06 9.97382e+06)
(1.15345e+08 76.4981 5372.08 1.06994e+08 9.64453e+06 9.98967e+06)
(1.15327e+08 2495.03 -582.939 1.06966e+08 9.65035e+06 9.95755e+06)
(1.15322e+08 436.351 1638.78 1.06961e+08 9.67886e+06 9.94739e+06)
(1.15329e+08 -1316.02 474.532 1.06976e+08 9.6696e+06 9.95744e+06)
(1.15335e+08 951.155 -1861.37 1.06983e+08 9.64561e+06 9.96776e+06)
(1.15322e+08 418.519 -641.635 1.06961e+08 9.67793e+06 9.94581e+06)
(1.15329e+08 -2180.92 53.7749 1.06976e+08 9.6699e+06 9.95553e+06)
(1.15344e+08 -763.281 -1976.87 1.06993e+08 9.64452e+06 9.98771e+06)
(1.15325e+08 690.311 -3593.63 1.06969e+08 9.66908e+06 9.95313e+06)
(1.15333e+08 1528.63 -10949.1 1.06975e+08 9.67064e+06 9.97061e+06)
(1.15333e+08 963.954 -8112.04 1.06984e+08 9.67564e+06 9.95784e+06)
(1.15325e+08 -226.37 -4148.73 1.06973e+08 9.67136e+06 9.95016e+06)
(1.15339e+08 339.96 -16368.4 1.06991e+08 9.68438e+06 9.97492e+06)
(1.15335e+08 217.663 -14830.2 1.06992e+08 9.68544e+06 9.96453e+06)
(1.15299e+08 -4263.84 -19377.3 1.06952e+08 9.67622e+06 9.95306e+06)
(1.15138e+08 -37313.5 -127228 1.06921e+08 9.62401e+06 9.96705e+06)
(1.13357e+08 -163289 -937001 1.06178e+08 9.38632e+06 8.91378e+06)
(9.69966e+07 -313443 -4.6211e+06 9.8791e+07 8.44865e+06 -76718.7)
(5.41969e+07 -720813 -2.68806e+07 9.27862e+07 8.52913e+06 2.19486e+07)
(5.50575e+07 497715 2.755e+07 9.7142e+07 5.28218e+06 2.38105e+07)
(9.86725e+07 231167 4.79035e+06 1.03574e+08 5.15445e+06 1.31281e+06)
(1.15527e+08 122656 994986 1.11398e+08 5.83628e+06 1.06149e+07)
(1.17349e+08 30049 142446 1.12173e+08 6.019e+06 1.16647e+07)
(1.17551e+08 3495.43 27164.5 1.12246e+08 6.06736e+06 1.17061e+07)
(1.17559e+08 -517.3 11260.7 1.12229e+08 6.04542e+06 1.16821e+07)
(1.17586e+08 -1386.05 12752 1.12272e+08 6.06568e+06 1.17137e+07)
(1.17572e+08 -713.582 12369.1 1.12249e+08 6.03485e+06 1.16935e+07)
(1.17567e+08 -128.672 2697.3 1.12239e+08 6.03918e+06 1.16869e+07)
(1.17584e+08 -93.5685 6127.8 1.12272e+08 6.03384e+06 1.17072e+07)
(1.17575e+08 -906.275 4677.92 1.12259e+08 6.06172e+06 1.16945e+07)
(1.17586e+08 -900.011 -1951.4 1.12272e+08 6.03282e+06 1.17143e+07)
(1.17589e+08 1490.07 4420.57 1.12273e+08 6.01639e+06 1.17188e+07)
(1.17572e+08 271.352 5383.47 1.12245e+08 6.03931e+06 1.1695e+07)
(1.17575e+08 -469.101 -3476.76 1.12252e+08 6.0333e+06 1.16994e+07)
(1.17586e+08 737.082 -1372.01 1.12272e+08 6.03357e+06 1.17116e+07)
(1.17572e+08 -198.027 3004.52 1.12245e+08 6.0385e+06 1.1694e+07)
(1.17575e+08 -1382.03 -4860.96 1.12252e+08 6.03363e+06 1.16983e+07)
(1.17583e+08 -994.411 -2224.4 1.12268e+08 6.03253e+06 1.17085e+07)
(1.17581e+08 -449.465 521.249 1.12261e+08 6.0111e+06 1.17103e+07)
(1.17586e+08 2483.88 -6660.87 1.12261e+08 6.01402e+06 1.17232e+07)
(1.17568e+08 1536.17 -7436.59 1.12245e+08 6.06888e+06 1.16846e+07)
(1.17571e+08 -695.652 -12115.9 1.12249e+08 6.0351e+06 1.16926e+07)
(1.17579e+08 1034.81 -16316.1 1.1226e+08 6.03968e+06 1.17033e+07)
(1.17578e+08 -703.559 -10386.9 1.12264e+08 6.04962e+06 1.17044e+07)
(1.17552e+08 -4530.28 -24640 1.12246e+08 6.01512e+06 1.17114e+07)
(1.1737e+08 -27903 -143864 1.122e+08 6.01457e+06 1.17032e+07)
(1.15527e+08 -121578 -992985 1.11396e+08 5.8381e+06 1.06175e+07)
(9.86765e+07 -230938 -4.79182e+06 1.03577e+08 5.15336e+06 1.31853e+06)
(5.5057e+07 -498382 -2.7547e+07 9.71355e+07 5.28821e+06 2.38053e+07)
(5.55671e+07 316186 2.79881e+07 9.98548e+07 3.30127e+06 2.48581e+07)
(9.96489e+07 160487 4.92584e+06 1.06519e+08 3.17171e+06 2.02848e+06)
(1.16816e+08 88824.8 1.04022e+06 1.14633e+08 3.67e+06 1.15172e+07)
(1.18702e+08 21508.9 148669 1.1548e+08 3.77872e+06 1.26151e+07)
(1.18909e+08 2802.1 28327.7 1.15545e+08 3.79821e+06 1.2657e+07)
(1.18928e+08 544.365 14385.9 1.15547e+08 3.79941e+06 1.26407e+07)
(1.1893e+08 -1001.39 11879.7 1.1555e+08 3.82295e+06 1.2636e+07)
(1.18936e+08 -1082.21 8912.5 1.15559e+08 3.7923e+06 1.26458e+07)
(1.18934e+08 802.686 6384.54 1.15554e+08 3.79565e+06 1.26428e+07)
(1.18938e+08 -132.648 5781.24 1.15565e+08 3.8178e+06 1.26446e+07)
(1.18935e+08 -1145.93 3949.5 1.15557e+08 3.79439e+06 1.26459e+07)
(1.18945e+08 724.278 -1824.87 1.15574e+08 3.79731e+06 1.2657e+07)
(1.18948e+08 607.438 1572.72 1.1558e+08 3.8199e+06 1.26583e+07)
(1.18937e+08 -1219.27 5233.2 1.15559e+08 3.79501e+06 1.26492e+07)
(1.18938e+08 479.106 31.9629 1.15561e+08 3.79092e+06 1.26496e+07)
(1.18939e+08 605.867 -964.675 1.15565e+08 3.81718e+06 1.2647e+07)
(1.18937e+08 -1005.22 -763.162 1.15558e+08 3.79431e+06 1.26474e+07)
(1.18939e+08 -671.111 -1762.59 1.15562e+08 3.79148e+06 1.265e+07)
(1.18942e+08 -224.899 -6045.75 1.15568e+08 3.79662e+06 1.26536e+07)
(1.18949e+08 -642.927 -7040.95 1.15581e+08 3.7904e+06 1.2664e+07)
(1.18953e+08 1282.13 -2310.93 1.15586e+08 3.77263e+06 1.26692e+07)
(1.18931e+08 1187.42 -2968.08 1.15549e+08 3.79861e+06 1.26402e+07)
(1.18935e+08 450.512 -8643.08 1.15559e+08 3.79289e+06 1.26447e+07)
(1.18933e+08 1899.64 -15962.8 1.15556e+08 3.8218e+06 1.26389e+07)
(1.18936e+08 -902.082 -17460.3 1.15563e+08 3.82609e+06 1.26477e+07)
(1.18919e+08 -4753.14 -22887.4 1.15569e+08 3.79299e+06 1.26663e+07)
(1.18708e+08 -20731.5 -145313 1.15489e+08 3.78052e+06 1.26258e+07)
(1.16818e+08 -88130.7 -1.04124e+06 1.14633e+08 3.67028e+06 1.15233e+07)
(9.96602e+07 -160212 -4.92789e+06 1.06528e+08 3.17103e+06 2.05217e+06)
(5.55663e+07 -316919 -2.79867e+07 9.985e+07 3.3059e+06 2.48531e+07)
(5.5886e+07 190770 2.82595e+07 1.01556e+08 2.07111e+06 2.54879e+07)
(1.00244e+08 105547 5.01716e+06 1.08337e+08 1.96825e+06 2.44438e+06)
(1.1762e+08 62958.6 1.07377e+06 1.16668e+08 2.29129e+06 1.20678e+07)
(1.19545e+08 15848.3 156066 1.17566e+08 2.38514e+06 1.31867e+07)
(1.19754e+08 2216.48 28741.4 1.17631e+08 2.39981e+06 1.32189e+07)
(1.19782e+08 466.915 14380.5 1.17641e+08 2.40032e+06 1.32174e+07)
(1.19781e+08 -661.16 11399.6 1.17635e+08 2.40259e+06 1.32116e+07)
(1.19788e+08 -646.485 8825.35 1.17648e+08 2.39629e+06 1.32192e+07)
(1.19787e+08 449.965 6646.41 1.17646e+08 2.39804e+06 1.3219e+07)
(1.19792e+08 -116.956 5708.29 1.17649e+08 2.40015e+06 1.32305e+07)
(1.19789e+08 -298.441 -199.656 1.17648e+08 2.39845e+06 1.32218e+07)
(1.19797e+08 1221.06 1752.7 1.17661e+08 2.39943e+06 1.32314e+07)
(1.19787e+08 3.03348 5493.61 1.17646e+08 2.42347e+06 1.32176e+07)
(1.1979e+08 -1754.8 1404.35 1.17649e+08 2.39816e+06 1.3223e+07)
(1.19788e+08 172.287 58.6834 1.17646e+08 2.39518e+06 1.32212e+07)
(1.19793e+08 622.728 -636.087 1.17649e+08 2.3997e+06 1.32306e+07)
(1.19789e+08 -617.403 -1031.22 1.17648e+08 2.39767e+06 1.32211e+07)
(1.1979e+08 -568.392 -5423 1.1765e+08 2.39554e+06 1.32223e+07)
(1.19807e+08 534.714 -2562.64 1.17673e+08 2.38091e+06 1.32521e+07)
(1.1979e+08 919.189 -3799.44 1.17651e+08 2.41772e+06 1.32217e+07)
(1.19798e+08 291.326 -5177.29 1.17667e+08 2.41974e+06 1.3229e+07)
(1.19786e+08 -379.264 -2469.4 1.17643e+08 2.4009e+06 1.32184e+07)
(1.19787e+08 301.516 -8713.23 1.17648e+08 2.39706e+06 1.32185e+07)
(1.19783e+08 1909.27 -11890.6 1.17638e+08 2.40186e+06 1.32141e+07)
(1.19778e+08 123.423 -14011.6 1.17635e+08 2.42705e+06 1.32123e+07)
(1.1976e+08 -4348.8 -31608.3 1.17642e+08 2.41929e+06 1.32241e+07)
(1.19557e+08 -16390.1 -156152 1.17583e+08 2.36638e+06 1.32064e+07)
(1.17623e+08 -62384.6 -1.07072e+06 1.16669e+08 2.29062e+06 1.20745e+07)
(1.00246e+08 -105089 -5.01814e+06 1.08339e+08 1.9668e+06 2.44886e+06)
(5.58857e+07 -191250 -2.82593e+07 1.01555e+08 2.07443e+06 2.54856e+07)
(5.60911e+07 111806 2.84212e+07 1.02626e+08 1.29876e+06 2.58799e+07)
(1.00617e+08 67129.4 5.07673e+06 1.0946e+08 1.22634e+06 2.70428e+06)
(1.18129e+08 43606.8 1.09784e+06 1.17955e+08 1.44058e+06 1.24178e+07)
(1.20076e+08 11348.5 161550 1.18882e+08 1.50679e+06 1.35485e+07)
(1.20296e+08 1672.04 30001.7 1.18954e+08 1.51795e+06 1.35919e+07)
(1.20321e+08 533.888 14513.8 1.18962e+08 1.51772e+06 1.35815e+07)
(1.20323e+08 -403.813 11083.2 1.1896e+08 1.51943e+06 1.35792e+07)
(1.20326e+08 -428.061 8521.92 1.18967e+08 1.51542e+06 1.35821e+07)
(1.20326e+08 134.222 6634.34 1.18966e+08 1.51641e+06 1.35821e+07)
(1.2033e+08 -103.835 5590.03 1.18969e+08 1.51874e+06 1.35928e+07)
(1.20328e+08 596.685 3179.64 1.18968e+08 1.51691e+06 1.35859e+07)
(1.20327e+08 756.381 2044.73 1.18967e+08 1.53879e+06 1.35835e+07)
(1.20324e+08 -642.566 2089.53 1.18959e+08 1.5215e+06 1.35822e+07)
(1.20328e+08 -1588.45 938.055 1.18969e+08 1.51694e+06 1.35863e+07)
(1.20332e+08 17.3041 -70.4475 1.18975e+08 1.49664e+06 1.35924e+07)
(1.20327e+08 927.006 -352.71 1.18966e+08 1.51799e+06 1.35832e+07)
(1.20327e+08 -457.803 -1128.21 1.18968e+08 1.51677e+06 1.35843e+07)
(1.20327e+08 626.397 -5713.79 1.18966e+08 1.51504e+06 1.35835e+07)
(1.20336e+08 7.37919 -2432.69 1.18984e+08 1.53871e+06 1.35936e+07)
(1.20331e+08 131.688 -75.3158 1.1897e+08 1.49903e+06 1.35916e+07)
(1.20323e+08 692.692 -4786.66 1.18961e+08 1.53953e+06 1.35784e+07)
(1.20326e+08 -756.188 -5819.23 1.18964e+08 1.51829e+06 1.35839e+07)
(1.20326e+08 211.464 -8616.19 1.18967e+08 1.51625e+06 1.35821e+07)
(1.20324e+08 1101.26 -11337.1 1.18961e+08 1.51931e+06 1.35804e+07)
(1.20317e+08 -39.4707 -14137.6 1.18952e+08 1.52256e+06 1.35789e+07)
(1.20293e+08 -2177.28 -32917.5 1.18952e+08 1.51786e+06 1.35856e+07)
(1.20084e+08 -11969.3 -161722 1.18894e+08 1.52713e+06 1.35604e+07)
(1.18131e+08 -44067.9 -1.09455e+06 1.17956e+08 1.43924e+06 1.24235e+07)
(1.00617e+08 -66473.9 -5.07758e+06 1.09461e+08 1.225e+06 2.70621e+06)
(5.60913e+07 -112016 -2.84218e+07 1.02628e+08 1.30116e+06 2.58793e+07)
(5.62273e+07 64756.4 2.85152e+07 1.03308e+08 790055 2.61335e+07)
(1.00851e+08 42046.9 5.11378e+06 1.10152e+08 762429 2.86966e+06)
(1.18449e+08 29462.6 1.11466e+06 1.18761e+08 901157 1.26394e+07)
(1.20411e+08 7582.13 165442 1.1971e+08 947259 1.37788e+07)
(1.20635e+08 1174.81 30009.2 1.19789e+08 936373 1.38198e+07)
(1.20661e+08 883.717 14799.6 1.19793e+08 954720 1.38131e+07)
(1.20663e+08 -203.425 10868.1 1.19793e+08 955601 1.38121e+07)
(1.20665e+08 -270.573 8260.8 1.19797e+08 953531 1.38128e+07)
(1.20665e+08 50.9472 6409.25 1.19796e+08 954399 1.38124e+07)
(1.20665e+08 -125.572 5371.03 1.19796e+08 955622 1.38129e+07)
(1.20667e+08 174.884 3405.39 1.19797e+08 954339 1.38167e+07)
(1.20663e+08 506.742 2394.52 1.19787e+08 956802 1.38128e+07)
(1.20666e+08 -157.143 2059.45 1.19794e+08 957668 1.3817e+07)
(1.20668e+08 -675.224 -2972.33 1.19799e+08 954863 1.38174e+07)
(1.20676e+08 59.7115 -75.7621 1.19812e+08 953334 1.3827e+07)
(1.20667e+08 330.851 3358.23 1.19797e+08 955972 1.38154e+07)
(1.20667e+08 -750.361 -1248.16 1.19798e+08 955028 1.3816e+07)
(1.20671e+08 1040.44 -2271.93 1.19804e+08 936020 1.38216e+07)
(1.20666e+08 728.983 -5747.57 1.19795e+08 977611 1.3813e+07)
(1.20675e+08 -1069.86 -3309.55 1.1981e+08 955069 1.38275e+07)
(1.20667e+08 26.6359 -1139.34 1.19795e+08 940443 1.38186e+07)
(1.20666e+08 31.9527 -5994.55 1.19794e+08 954764 1.38159e+07)
(1.20665e+08 221.165 -8508.46 1.19797e+08 954413 1.38134e+07)
(1.20664e+08 602.804 -10919 1.19794e+08 955787 1.38132e+07)
(1.20659e+08 -168.917 -14162.4 1.19789e+08 957677 1.38139e+07)
(1.20632e+08 -1605.29 -30372.8 1.19783e+08 954776 1.38185e+07)
(1.20413e+08 -8671.27 -166094 1.19708e+08 949696 1.37862e+07)
(1.1845e+08 -29744.7 -1.11486e+06 1.18758e+08 899573 1.2643e+07)
(1.0085e+08 -40752.3 -5.11472e+06 1.10152e+08 761480 2.86962e+06)
(5.62238e+07 -64477.4 -2.85167e+07 1.03301e+08 811308 2.6125e+07)
(5.63147e+07 37180.3 2.85668e+07 1.03735e+08 497776 2.62912e+07)
(1.00996e+08 24919.9 5.14119e+06 1.10575e+08 467703 2.97221e+06)
(1.18647e+08 19294.4 1.12604e+06 1.19259e+08 555591 1.2777e+07)
(1.20619e+08 5632.13 164931 1.20225e+08 586813 1.39235e+07)
(1.2085e+08 748.59 30362.4 1.20314e+08 591478 1.39694e+07)
(1.20872e+08 223.898 18351.3 1.20309e+08 591039 1.39573e+07)
(1.20875e+08 -22.6997 10758.4 1.20311e+08 591806 1.39571e+07)
(1.20877e+08 -138.238 8102.91 1.20313e+08 590906 1.3957e+07)
(1.20877e+08 101.943 6396.92 1.20313e+08 591732 1.39568e+07)
(1.20877e+08 -184.374 5250.96 1.20313e+08 592874 1.39582e+07)
(1.20878e+08 -437.744 3487.23 1.20313e+08 590973 1.39605e+07)
(1.20881e+08 406.405 2630.84 1.20316e+08 575545 1.39664e+07)
(1.20879e+08 398.73 1971.11 1.20313e+08 593181 1.39626e+07)
(1.20879e+08 35.2322 213.562 1.20315e+08 592014 1.39617e+07)
(1.20879e+08 67.1552 49.4298 1.20314e+08 609468 1.39612e+07)
(1.20879e+08 -158.654 161.652 1.20314e+08 592850 1.39618e+07)
(1.20879e+08 -82.9031 -4861.62 1.20315e+08 592458 1.39618e+07)
(1.20887e+08 580.104 -2075.31 1.20329e+08 591870 1.39708e+07)
(1.20876e+08 518.709 1192.48 1.20307e+08 596098 1.3958e+07)
(1.20879e+08 -259.705 -6773.48 1.20313e+08 610540 1.39619e+07)
(1.20886e+08 -687.799 -4535.08 1.20326e+08 594579 1.39713e+07)
(1.20876e+08 -336.443 -2687.22 1.20309e+08 591110 1.39595e+07)
(1.20877e+08 311.073 -8360.9 1.20314e+08 591891 1.39583e+07)
(1.20876e+08 292.44 -10718.8 1.20311e+08 592006 1.39583e+07)
(1.20872e+08 -330.151 -14264.6 1.20309e+08 592877 1.39598e+07)
(1.20843e+08 -1339.02 -34363.8 1.20299e+08 590756 1.39629e+07)
(1.2063e+08 -6232.16 -169262 1.20237e+08 570700 1.39417e+07)
(1.18653e+08 -19324.2 -1.12297e+06 1.19266e+08 536726 1.27877e+07)
(1.00996e+08 -23986 -5.137e+06 1.10575e+08 467462 2.97252e+06)
(5.63083e+07 -36582.5 -2.8571e+07 1.0372e+08 497570 2.62773e+07)
(5.63606e+07 20843.2 2.86014e+07 1.03972e+08 314358 2.63703e+07)
(1.01084e+08 13889.9 5.14911e+06 1.10828e+08 275627 3.03507e+06)
(1.18767e+08 11988.5 1.13345e+06 1.1956e+08 329184 1.28606e+07)
(1.20745e+08 4016.75 170532 1.20536e+08 349249 1.40116e+07)
(1.20975e+08 190.766 31018.7 1.20617e+08 369215 1.40572e+07)
(1.20999e+08 -174.755 14897.4 1.2062e+08 350880 1.4044e+07)
(1.21004e+08 218.574 10768.9 1.20625e+08 351712 1.4045e+07)
(1.21005e+08 -42.5456 8036.39 1.20626e+08 351502 1.40444e+07)
(1.21005e+08 28.3758 6484.8 1.20626e+08 352165 1.40446e+07)
(1.21009e+08 -345.497 5190.32 1.20629e+08 352873 1.40542e+07)
(1.21005e+08 115.068 0.68767 1.20624e+08 351117 1.40468e+07)
(1.21016e+08 469.678 2841.26 1.20641e+08 353083 1.40603e+07)
(1.21008e+08 -94.8647 5363.8 1.20628e+08 352945 1.405e+07)
(1.21008e+08 -571.461 117.631 1.20628e+08 352404 1.40492e+07)
(1.21009e+08 -73.0189 162.51 1.20628e+08 334849 1.40518e+07)
(1.21011e+08 487.424 300.768 1.2063e+08 352478 1.40579e+07)
(1.21011e+08 724.368 -1446.47 1.20632e+08 352866 1.40577e+07)
(1.21009e+08 391.729 -1871.79 1.20631e+08 370967 1.40499e+07)
(1.21006e+08 -838.504 -2203.77 1.20624e+08 355003 1.40491e+07)
(1.21009e+08 482.808 -3406.85 1.20628e+08 335719 1.40527e+07)
(1.21009e+08 -415.936 -4631.38 1.2063e+08 372474 1.4052e+07)
(1.2101e+08 -834.462 -6221.19 1.20631e+08 333847 1.40531e+07)
(1.21006e+08 591.613 -8284.45 1.20627e+08 352568 1.4047e+07)
(1.21005e+08 101.842 -10684.5 1.20625e+08 351685 1.40459e+07)
(1.21001e+08 -644.466 -14366.8 1.20624e+08 352341 1.40481e+07)
(1.20976e+08 33.4303 -34713.8 1.20622e+08 333432 1.40574e+07)
(1.20756e+08 -3030.93 -175052 1.20552e+08 368141 1.40275e+07)
(1.18778e+08 -12897.4 -1.13049e+06 1.19577e+08 328636 1.28759e+07)
(1.01085e+08 -14180.4 -5.14629e+06 1.10828e+08 275453 3.03676e+06)
(5.63598e+07 -20532.2 -2.85996e+07 1.03973e+08 294736 2.63673e+07)
(5.63901e+07 10747.5 2.86188e+07 1.04115e+08 135486 2.64228e+07)
(1.01133e+08 7929.05 5.15653e+06 1.1097e+08 144171 3.06847e+06)
(1.18835e+08 6456.38 1.13792e+06 1.1973e+08 173043 1.29076e+07)
(1.20821e+08 1385.19 172453 1.20716e+08 183938 1.40699e+07)
(1.21042e+08 -336.95 30418.7 1.20789e+08 167127 1.40978e+07)
(1.21077e+08 705.272 15105.1 1.20807e+08 167110 1.40994e+07)
(1.21077e+08 628.242 10861.2 1.20804e+08 185156 1.40948e+07)
(1.21078e+08 13.4939 8026.26 1.20804e+08 185284 1.40939e+07)
(1.21078e+08 -60.5737 6340.31 1.20804e+08 185745 1.40944e+07)
(1.21078e+08 -688.82 4888.66 1.20804e+08 185306 1.40951e+07)
(1.21083e+08 713.148 3654.11 1.2081e+08 167542 1.41019e+07)
(1.21082e+08 755.96 3058.22 1.20808e+08 204298 1.41024e+07)
(1.2108e+08 -609.712 1867.37 1.20805e+08 186532 1.40997e+07)
(1.2108e+08 -138.563 -3438.63 1.20806e+08 185998 1.40989e+07)
(1.21087e+08 -247.562 -65.5966 1.20817e+08 185715 1.41075e+07)
(1.21079e+08 38.5758 3765.19 1.20804e+08 184384 1.40975e+07)
(1.2108e+08 540.695 -1096.1 1.20805e+08 185828 1.40983e+07)
(1.21078e+08 225.089 -1538.14 1.208e+08 187047 1.40957e+07)
(1.21084e+08 -88.212 -5601.35 1.20807e+08 186712 1.41077e+07)
(1.21088e+08 227.961 -3342.1 1.20818e+08 186758 1.4109e+07)
(1.21082e+08 -306.322 -4886.48 1.20804e+08 187567 1.41068e+07)
(1.21087e+08 -410.768 -6355.15 1.20818e+08 184942 1.41074e+07)
(1.21083e+08 -4.88309 -5104.81 1.20808e+08 185931 1.41049e+07)
(1.21077e+08 77.3235 -10731.3 1.20802e+08 184599 1.40947e+07)
(1.21075e+08 2.69394 -17881.8 1.20804e+08 185681 1.40981e+07)
(1.21053e+08 508.522 -31438.6 1.20809e+08 184639 1.41128e+07)
(1.20818e+08 -1224.48 -169110 1.20712e+08 203103 1.40665e+07)
(1.18839e+08 -7663.79 -1.13859e+06 1.19735e+08 191162 1.29141e+07)
(1.01133e+08 -7989.48 -5.1567e+06 1.10968e+08 143148 3.06981e+06)
(5.63889e+07 -10500.1 -2.86188e+07 1.04115e+08 155563 2.64178e+07)
(5.64079e+07 3349.74 2.86234e+07 1.04193e+08 48744.9 2.6455e+07)
(1.01155e+08 2164.23 5.16502e+06 1.11033e+08 44641.7 3.08206e+06)
(1.18865e+08 1929.55 1.13984e+06 1.19806e+08 53822.4 1.29285e+07)
(1.20849e+08 111.752 168680 1.20793e+08 56523.4 1.40834e+07)
(1.21087e+08 244.967 27069.4 1.20891e+08 40279.1 1.41333e+07)
(1.21115e+08 487.237 18610.5 1.20898e+08 57498.4 1.41279e+07)
(1.2111e+08 8.40441 14417.9 1.20884e+08 57286.9 1.41175e+07)
(1.2111e+08 31.8167 8048.27 1.20884e+08 57560.9 1.41162e+07)
(1.21111e+08 -21.3186 6254.56 1.20885e+08 57736.2 1.4117e+07)
(1.21111e+08 -45.0018 1321.04 1.20885e+08 57551.1 1.4117e+07)
(1.21121e+08 185.84 3797.16 1.209e+08 57675.5 1.41301e+07)
(1.21111e+08 -29.0328 6693.13 1.2088e+08 58244.6 1.412e+07)
(1.21116e+08 -139.48 1836.04 1.20888e+08 57760 1.41303e+07)
(1.21113e+08 440.286 -176.58 1.20887e+08 58017.1 1.4121e+07)
(1.21113e+08 -363.714 -305.152 1.20885e+08 75337.5 1.41213e+07)
(1.21111e+08 -438.981 443.961 1.20882e+08 56394.4 1.41171e+07)
(1.21116e+08 430.405 -761.873 1.20889e+08 57864.2 1.41283e+07)
(1.21112e+08 129.393 -1630.98 1.20883e+08 58349.8 1.41196e+07)
(1.21113e+08 635.655 -2249.71 1.20885e+08 57452.2 1.41207e+07)
(1.21115e+08 86.0541 -3240.21 1.20889e+08 76334 1.41243e+07)
(1.21112e+08 -352.645 -4916.42 1.20883e+08 58415 1.4121e+07)
(1.21113e+08 -181.982 -6452.69 1.20885e+08 74970.8 1.4121e+07)
(1.21112e+08 -598.277 -8252.28 1.20885e+08 57416.3 1.41188e+07)
(1.21109e+08 70.3323 -10561.4 1.2088e+08 56418.4 1.41158e+07)
(1.21108e+08 653.592 -14448.6 1.20885e+08 57616.1 1.41215e+07)
(1.21079e+08 109.175 -31446.5 1.20875e+08 74903.8 1.41265e+07)
(1.20847e+08 -718.343 -173003 1.20785e+08 57917.9 1.40844e+07)
(1.18865e+08 -3045.61 -1.14115e+06 1.19804e+08 54940.2 1.29306e+07)