/*--------------------------------*- C++ -*----------------------------------*\
| =========                 |                                                 |
| \\      /  F ield         | OpenFOAM: The Open Source CFD Toolbox           |
|  \\    /   O peration     | Version:  2106                                  |
|   \\  /    A nd           | Website:  www.openfoam.com                      |
|    \\/     M anipulation  |                                                 |
\*---------------------------------------------------------------------------*/
FoamFile
{
    version     2.0;
    format      ascii;
    arch        "LSB;label=32;scalar=64";
    class       volTensorField;
    location    "505";
    object      testEpsilon;
}
// * * * * * * * * * * * * * * * * * * * * * * * * * * * * * * * * * * * * * //

dimensions      [0 0 0 0 0 0 0];

internalField   nonuniform List<tensor> 
9000
(
(-0.0855838 0.00384419 -0.105461 -0.00437159 -0.147121 -0.257511 0.201792 0.380332 -0.0253584)
(-0.016774 0.00368651 -0.00285625 -0.00261108 -0.156477 -0.270377 0.0216294 0.400637 -0.0697468)
(-0.00192939 0.00248159 0.00204097 -0.00181017 -0.166386 -0.287064 0.00309576 0.425379 -0.0595142)
(-0.000321127 0.000467102 0.000324677 -0.000365861 -0.167998 -0.290833 0.000583447 0.430925 -0.0573939)
(-5.54533e-05 -3.84804e-05 -2.81165e-05 2.2636e-05 -0.16808 -0.290946 0.000111974 0.431091 -0.0574051)
(-4.08131e-06 -2.28361e-05 -1.48232e-05 1.87904e-05 -0.167898 -0.29017 5.2944e-05 0.429894 -0.0576768)
(-1.49344e-06 -1.07999e-06 -1.32437e-07 1.04604e-06 -0.168023 -0.290729 5.20006e-05 0.430779 -0.0575608)
(-4.9129e-08 -3.09468e-05 -1.87412e-05 1.91242e-05 -0.167892 -0.29016 3.39053e-05 0.429886 -0.0576754)
(-9.5162e-07 3.99732e-05 2.55001e-05 -2.70659e-05 -0.16789 -0.290151 3.61979e-05 0.429871 -0.0576822)
(-6.53682e-06 1.75945e-05 8.91292e-06 -4.30542e-06 -0.168064 -0.290839 -2.46608e-05 0.430934 -0.0574636)
(2.40954e-06 -6.42754e-05 -4.44082e-05 5.17927e-05 -0.167946 -0.290401 -5.4211e-05 0.430262 -0.0575891)
(7.81882e-06 1.76166e-05 1.38024e-05 -1.8684e-05 -0.167765 -0.289692 6.45905e-05 0.429173 -0.0578274)
(-4.55659e-06 5.99552e-05 4.12571e-05 -4.90764e-05 -0.168054 -0.290788 7.53654e-05 0.43086 -0.05749)
(-4.28845e-06 -1.20698e-05 -1.08457e-05 1.37095e-05 -0.168071 -0.290794 -4.99371e-05 0.430884 -0.0574788)
(3.45547e-06 6.11781e-06 3.96664e-06 -4.39595e-06 -0.167959 -0.290448 -2.54591e-07 0.430327 -0.0575726)
(-2.60913e-06 1.28782e-05 1.07663e-05 -1.52617e-05 -0.168067 -0.29085 5.0271e-05 0.43095 -0.0574638)
(-2.13207e-06 -1.86086e-05 -1.45246e-05 1.92725e-05 -0.168069 -0.290789 -5.77277e-05 0.430876 -0.057484)
(5.41863e-08 1.38513e-06 1.47373e-06 1.227e-07 -0.167962 -0.290456 -6.99055e-06 0.430339 -0.057565)
(-2.14108e-06 -4.47056e-05 -2.81883e-05 3.13896e-05 -0.168056 -0.290807 -2.01517e-05 0.430889 -0.0574795)
(4.61537e-06 -4.11564e-05 -2.66065e-05 2.84101e-05 -0.167777 -0.289735 -2.5483e-05 0.429234 -0.0577933)
(2.71592e-06 5.9409e-05 4.03488e-05 -4.77984e-05 -0.167877 -0.290105 3.96878e-05 0.429812 -0.0577073)
(-5.71036e-06 4.58302e-05 2.93626e-05 -3.27862e-05 -0.168063 -0.290821 -1.53769e-05 0.430903 -0.0574795)
(-3.54977e-06 -3.47585e-05 -2.20763e-05 2.29818e-05 -0.168067 -0.29085 -4.17436e-05 0.43095 -0.0574625)
(-4.53413e-08 -7.24459e-06 -4.22885e-06 5.61025e-06 -0.167903 -0.290188 -4.95894e-05 0.429922 -0.0576632)
(-7.93808e-06 1.19144e-05 6.72016e-06 -8.62667e-06 -0.168054 -0.290791 -5.75361e-05 0.430861 -0.0574904)
(-5.40205e-05 -2.22719e-05 -1.35615e-05 2.61168e-05 -0.167914 -0.290284 -0.000176752 0.430068 -0.0576012)
(-0.000314607 -0.000438621 -0.000306253 0.000347257 -0.167868 -0.290354 -0.000578638 0.430197 -0.0575353)
(-0.00192999 -0.00245447 -0.00202157 0.00178347 -0.166382 -0.286982 -0.00304004 0.425274 -0.0595399)
(-0.0167768 -0.00367867 0.00286138 0.00260512 -0.156475 -0.270371 -0.0216313 0.400629 -0.0697481)
(-0.0855831 -0.00384615 0.105462 0.00437342 -0.14712 -0.257499 -0.201796 0.380311 -0.0253636)
(-0.072405 0.00189481 -0.10318 -0.00191764 -0.0980753 -0.0790792 0.196146 0.215453 -0.128984)
(-0.0163981 0.0021627 -0.00426161 -0.000797878 -0.103198 -0.0826118 0.0203177 0.226114 -0.175004)
(-0.00180235 0.00153295 0.000977675 -0.000667708 -0.109234 -0.0876384 0.00211292 0.240111 -0.17132)
(-0.000206524 0.000315902 0.000119151 -0.000174036 -0.1104 -0.088831 0.000344647 0.243619 -0.170638)
(-2.74911e-05 -1.70385e-05 1.28685e-06 4.41015e-06 -0.110423 -0.088869 6.72119e-05 0.243723 -0.170684)
(-4.65581e-06 -1.63536e-05 -2.49785e-06 9.87713e-06 -0.110204 -0.0886838 6.73853e-05 0.243405 -0.170698)
(-2.2393e-06 4.81999e-07 1.26812e-06 5.74483e-07 -0.110371 -0.0887973 5.09331e-05 0.243542 -0.170708)
(-1.5667e-06 -9.97406e-06 5.93756e-06 6.54594e-06 -0.11018 -0.0886831 -1.17804e-05 0.243415 -0.170694)
(-7.83342e-07 1.51482e-05 -5.56434e-06 -1.10294e-05 -0.110182 -0.0886819 7.29528e-05 0.2434 -0.170701)
(-1.19034e-06 1.08499e-05 -1.93834e-06 3.62892e-06 -0.110396 -0.0888333 6.8503e-05 0.243605 -0.170705)
(-4.63874e-07 -2.09146e-05 8.88471e-06 2.76094e-05 -0.110299 -0.0887411 -3.26998e-05 0.243863 -0.170675)
(6.86197e-08 4.33319e-07 -3.77335e-06 -1.21802e-05 -0.110079 -0.0885781 1.13242e-05 0.24363 -0.170664)
(-1.04666e-06 1.46627e-05 -8.00823e-06 -2.86686e-05 -0.110395 -0.0888057 5.44664e-05 0.243543 -0.170708)
(-7.36426e-07 3.48345e-06 3.86289e-06 9.07603e-06 -0.110372 -0.0888045 -6.81694e-07 0.243271 -0.170689)
(1.56132e-07 7.61225e-06 -7.70571e-07 -1.21135e-07 -0.110311 -0.0887574 -2.16289e-06 0.243906 -0.170678)
(-3.48131e-07 -5.32033e-06 -2.50018e-06 -1.27137e-05 -0.1104 -0.0888381 -1.43064e-06 0.243619 -0.170708)
(-2.04677e-07 -2.15768e-06 3.27669e-06 1.24759e-05 -0.110371 -0.0888035 -4.41166e-06 0.243268 -0.170691)
(-1.32281e-07 4.27345e-06 -9.22688e-07 3.35052e-06 -0.110315 -0.0887601 -5.19651e-06 0.243911 -0.170673)
(-7.37789e-07 -1.81824e-05 5.52841e-06 1.39118e-05 -0.110386 -0.0888209 -5.3538e-05 0.243573 -0.170709)
(-8.10189e-07 -1.59227e-05 6.04276e-06 1.20996e-05 -0.110086 -0.088594 -6.05916e-05 0.243686 -0.170663)
(-8.24279e-07 1.65036e-05 -1.00108e-05 -2.48113e-05 -0.110166 -0.0886616 2.03831e-05 0.243355 -0.170689)
(-9.71582e-07 1.91136e-05 -5.91021e-06 -1.52816e-05 -0.110406 -0.0888224 1.65877e-05 0.243573 -0.170712)
(-1.17897e-06 -1.11708e-05 6.46537e-06 8.97721e-06 -0.110398 -0.0888378 -8.12676e-05 0.243618 -0.170707)
(-1.70112e-06 -6.20661e-06 -1.23393e-06 2.72333e-06 -0.110197 -0.0886972 -4.51662e-05 0.243434 -0.170692)
(-5.33609e-06 1.01437e-05 2.05679e-06 -3.31457e-06 -0.110399 -0.0888135 -6.22384e-05 0.243543 -0.17071)
(-2.78714e-05 -1.65385e-06 7.40227e-06 2.1473e-05 -0.110215 -0.0887232 -0.000112749 0.243544 -0.170668)
(-0.000206307 -0.000311816 -0.000124858 0.000164909 -0.110289 -0.0887227 -0.000298302 0.243837 -0.170606)
(-0.00180248 -0.00152523 -0.000980832 0.000649999 -0.109198 -0.0875954 -0.00211387 0.239748 -0.171319)
(-0.0163981 -0.00215463 0.00426124 0.000796475 -0.103196 -0.0826087 -0.0203225 0.226106 -0.175002)
(-0.0724039 -0.00189736 0.10318 0.00192017 -0.098079 -0.0790788 -0.196147 0.215432 -0.128984)
(-0.0763065 -0.00107839 -0.104046 0.00342372 -0.0575559 -0.00938295 0.197545 0.125722 -0.153399)
(-0.016524 0.00145467 -0.00456808 0.000287915 -0.0602178 -0.0111293 0.020304 0.13243 -0.201965)
(-0.00180462 0.00104108 0.000797139 -2.21796e-06 -0.0633665 -0.0116302 0.00194425 0.14107 -0.199928)
(-0.000186703 0.000229366 7.85647e-05 -3.30089e-05 -0.0641024 -0.0117951 0.000264633 0.143588 -0.199627)
(-1.86707e-05 8.59232e-07 1.31769e-06 -2.59925e-06 -0.0641046 -0.011806 0.000114414 0.143686 -0.199687)
(-4.84844e-06 -1.24664e-05 -4.83109e-07 2.23784e-06 -0.0639993 -0.0118169 7.20278e-05 0.143917 -0.199647)
(-2.15968e-06 3.58442e-06 1.04045e-08 8.44325e-07 -0.0640755 -0.0117939 5.03383e-05 0.143553 -0.199695)
(-2.3699e-06 6.979e-06 4.32218e-06 1.99564e-06 -0.0639932 -0.0118338 3.91551e-05 0.14413 -0.199665)
(-1.53502e-06 -3.23037e-06 -4.53494e-06 -2.48233e-06 -0.0640017 -0.0118258 1.92538e-05 0.144108 -0.199669)
(1.19093e-06 -5.84411e-06 -2.92742e-06 3.4759e-07 -0.0640779 -0.0117968 2.03265e-05 0.1436 -0.1997)
(-7.52276e-07 -7.0355e-07 6.63171e-06 7.22367e-06 -0.0640666 -0.0118134 2.93576e-05 0.143567 -0.199685)
(-3.43678e-06 -1.68817e-06 8.87757e-07 -3.67376e-06 -0.0639788 -0.0118418 7.47475e-06 0.144089 -0.199647)
(-3.05349e-07 1.18795e-06 -4.01837e-06 -8.11747e-06 -0.0640577 -0.0117855 -3.69041e-05 0.143369 -0.199655)
(1.42104e-06 4.74848e-06 -1.18762e-06 2.8666e-06 -0.0640095 -0.0117999 1.89317e-06 0.143609 -0.199681)
(-9.02467e-07 6.24256e-07 -2.75651e-06 4.01834e-07 -0.0640716 -0.0118131 2.68823e-05 0.143598 -0.199689)
(-8.97267e-08 9.89589e-07 1.54357e-06 -3.13704e-06 -0.0640799 -0.0117993 -3.53349e-05 0.143615 -0.199701)
(1.08076e-06 -1.68203e-06 1.06728e-06 2.58469e-06 -0.0640091 -0.0118008 -1.43871e-07 0.143607 -0.199684)
(3.41357e-07 -1.72294e-06 -2.00132e-06 2.31266e-06 -0.0640736 -0.0118133 2.59779e-05 0.143597 -0.199689)
(-3.91258e-07 1.18822e-06 5.02853e-06 3.51268e-06 -0.0640717 -0.011791 1.89385e-06 0.143574 -0.199699)
(-3.12924e-06 2.93363e-06 5.26659e-06 2.69136e-06 -0.0639825 -0.0118474 -5.70595e-06 0.144103 -0.199651)
(-2.76032e-06 -4.73385e-06 -5.32954e-06 -6.31035e-06 -0.0639837 -0.0118289 -3.64287e-05 0.144114 -0.199655)
(1.04734e-06 -6.5971e-07 -5.88164e-06 -4.46358e-06 -0.0640685 -0.0117857 -3.99302e-05 0.143386 -0.199682)
(5.12127e-08 7.08028e-06 2.97465e-06 3.07262e-06 -0.0640778 -0.0117987 -2.84113e-05 0.143614 -0.199702)
(-2.5037e-06 -7.38745e-06 6.31367e-07 -5.69659e-07 -0.064012 -0.0118324 -4.31196e-05 0.144127 -0.199666)
(-4.18815e-06 8.39518e-06 1.5187e-06 -3.33444e-07 -0.0640724 -0.0117829 -6.31426e-05 0.143362 -0.199675)
(-2.03759e-05 -3.45702e-07 4.60064e-06 9.55637e-06 -0.0640245 -0.0118383 -0.000100228 0.144215 -0.199649)
(-0.000188902 -0.000235329 -8.06942e-05 3.06363e-05 -0.0640797 -0.0118069 -0.000301574 0.143526 -0.199609)
(-0.00180368 -0.00103585 -0.000798773 -2.52706e-06 -0.0632935 -0.0116223 -0.00195647 0.141023 -0.199916)
(-0.0165228 -0.00145478 0.0045647 -0.000288895 -0.0602157 -0.0111281 -0.0202795 0.132424 -0.201962)
(-0.0763037 0.00107368 0.104043 -0.00341854 -0.0575653 -0.00937957 -0.197542 0.125693 -0.1534)
(-0.0818799 -0.00282269 -0.107661 0.00645354 -0.0351681 0.00544011 0.204406 0.0763846 -0.154288)
(-0.0170833 0.00100059 -0.00471105 0.000759609 -0.0372337 0.00345667 0.0209922 0.081082 -0.205377)
(-0.00186653 0.000756023 0.000844525 0.000233684 -0.0391084 0.00393218 0.00213614 0.0872891 -0.203492)
(-0.0002066 0.000168272 8.39771e-05 3.25279e-05 -0.0396313 0.004018 0.000300289 0.0889596 -0.203202)
(-2.04417e-05 3.59312e-06 -3.08007e-06 -5.10972e-06 -0.0396407 0.00401809 8.90599e-05 0.0890524 -0.203268)
(-3.9671e-06 -1.05298e-05 -6.24595e-08 -2.9027e-06 -0.0395818 0.00398846 7.26467e-05 0.088876 -0.203234)
(-2.28773e-06 1.70432e-06 -2.11394e-06 8.94961e-07 -0.0396063 0.00401575 6.93679e-05 0.0888246 -0.203262)
(-2.23203e-06 4.79966e-06 -4.54203e-07 -1.70487e-06 -0.0396234 0.00398608 3.78183e-05 0.0890233 -0.203285)
(-1.11295e-06 -1.80733e-06 1.83003e-06 2.82064e-06 -0.0396178 0.00399169 2.19563e-05 0.0888708 -0.203247)
(7.50861e-07 -2.13719e-06 5.49344e-07 2.87818e-06 -0.0396158 0.00401657 2.16014e-05 0.0889927 -0.203278)
(-1.26814e-06 -1.09032e-06 -1.03959e-07 -2.80745e-06 -0.039611 0.00401121 2.85175e-05 0.0889721 -0.203274)
(-2.99961e-06 2.2102e-06 1.80146e-06 -6.64964e-07 -0.0396156 0.00398078 -1.1992e-05 0.0889854 -0.203251)
(2.61412e-07 8.52696e-06 3.70155e-07 3.32576e-06 -0.0395704 0.00400182 -8.53978e-06 0.0890105 -0.203257)
(9.67434e-07 7.03007e-07 -1.64887e-06 1.29512e-06 -0.0395913 0.00399323 2.20116e-05 0.089348 -0.203283)
(-1.0446e-06 -6.46472e-06 -6.54467e-07 -5.06675e-07 -0.0396088 0.00401114 -8.65685e-07 0.0890003 -0.203277)
(8.8441e-08 7.17994e-06 -3.69251e-08 9.98326e-07 -0.0396172 0.00401365 -7.33194e-06 0.089009 -0.203281)
(8.85264e-07 -8.92668e-07 4.86785e-07 -3.43919e-07 -0.039592 0.00399314 -3.80028e-07 0.0893448 -0.203287)
(5.33176e-08 -8.24628e-06 1.02388e-06 -1.83766e-07 -0.0396089 0.00401097 -6.52472e-07 0.0889993 -0.203278)
(-6.62049e-07 2.33448e-08 -1.30833e-06 -3.12783e-06 -0.0396126 0.00401911 -2.44333e-07 0.0889722 -0.203256)
(-2.7748e-06 1.68429e-06 -1.53157e-06 -3.17693e-06 -0.0396172 0.00398047 -8.50164e-06 0.0890063 -0.203277)
(-2.25527e-06 -6.8185e-07 2.34078e-06 2.916e-06 -0.0396189 0.00398477 -5.37639e-05 0.089005 -0.203259)
(9.05012e-07 2.91506e-07 1.22449e-07 2.82521e-06 -0.0395808 0.0040129 -3.87664e-05 0.0889858 -0.20325)
(-4.00184e-07 1.2202e-07 -2.88241e-06 -2.69429e-06 -0.0396132 0.00401469 -1.02784e-05 0.0890115 -0.203283)
(-2.38234e-06 -5.13914e-06 1.92701e-06 -2.5588e-06 -0.0396225 0.00399144 -6.31325e-05 0.0888785 -0.203269)
(-3.31089e-06 7.63469e-06 8.76707e-07 2.05773e-06 -0.0395752 0.00401296 -6.33757e-05 0.0888324 -0.203227)
(-2.16774e-05 -3.10554e-06 2.61069e-06 3.44114e-06 -0.0396484 0.00398917 -7.58737e-05 0.0890792 -0.203263)
(-0.000208724 -0.000165617 -8.16636e-05 -2.97243e-05 -0.0396178 0.00401113 -0.000306072 0.0889156 -0.203192)
(-0.00186639 -0.000752432 -0.000845083 -0.00023244 -0.0390845 0.00391286 -0.00215093 0.0875932 -0.203465)
(-0.0170813 -0.00100898 0.00470979 -0.000761943 -0.0372322 0.00345694 -0.0209982 0.0810787 -0.205374)
(-0.0818841 0.00281413 0.107657 -0.00644355 -0.0351586 0.00544554 -0.204399 0.0762255 -0.154273)
(-0.0860606 -0.00311453 -0.112087 0.00667139 -0.0220593 0.00482895 0.212833 0.0479438 -0.15228)
(-0.017768 0.000666598 -0.00486967 0.000874613 -0.023579 0.00285469 0.0219783 0.0506965 -0.205727)
(-0.00195004 0.000561562 0.000909405 0.000263212 -0.0249327 0.0033163 0.00241361 0.0554702 -0.203765)
(-0.000234462 0.000122909 9.57464e-05 4.96031e-05 -0.0252877 0.0034042 0.000329214 0.0565198 -0.203434)
(-2.57568e-05 1.07537e-05 -4.59018e-06 2.46045e-08 -0.0252889 0.00340688 8.86284e-05 0.0564972 -0.203494)
(-3.64751e-06 -5.57922e-06 -9.4983e-07 -3.82698e-06 -0.0252449 0.0033891 5.06622e-05 0.056804 -0.203525)
(-1.92012e-06 -4.7367e-06 -4.65942e-07 -8.86563e-07 -0.0252456 0.00339962 6.5445e-05 0.05644 -0.203502)
(-1.98476e-06 4.67929e-06 -4.90747e-07 -1.9962e-07 -0.0252832 0.0034078 3.55277e-05 0.0565817 -0.203527)
(-6.18412e-07 -1.70528e-06 1.56396e-06 1.41046e-06 -0.025257 0.00339978 2.46647e-05 0.0565924 -0.203515)
(6.53116e-08 -4.48369e-06 9.76542e-07 1.4025e-07 -0.0252861 0.00340238 4.00837e-05 0.056567 -0.203501)
(-1.46091e-06 -6.62182e-07 -5.27859e-07 -3.41553e-06 -0.025268 0.00340195 2.4082e-05 0.0564465 -0.203504)
(-2.21014e-06 6.42963e-06 -9.89242e-07 1.54315e-06 -0.0252838 0.0034051 7.18919e-06 0.0565658 -0.203509)
(8.66676e-08 6.04327e-06 -1.52838e-06 3.77524e-06 -0.0252736 0.00338481 -4.70595e-06 0.0567814 -0.203528)
(6.54553e-07 -2.93191e-06 6.75778e-07 4.51282e-07 -0.0253007 0.00339572 3.30667e-06 0.0566259 -0.203524)
(-9.61826e-07 -4.55869e-06 1.32793e-06 2.60222e-07 -0.0252783 0.00340172 2.07657e-07 0.0565755 -0.203518)
(-5.71756e-08 4.33691e-06 -2.05607e-06 7.2035e-07 -0.0252886 0.00340362 -6.73448e-06 0.0565764 -0.203519)
(8.44346e-07 -1.81747e-08 5.31329e-07 -6.58938e-07 -0.0253013 0.00339653 -1.69591e-06 0.056622 -0.203527)
(-2.15426e-07 -5.83661e-06 3.1934e-06 -1.01114e-06 -0.0252778 0.00340118 -1.46341e-07 0.0565751 -0.20352)
(-9.89892e-07 -4.61213e-07 -1.07072e-06 -2.95425e-06 -0.0252856 0.0034012 -4.35564e-06 0.0565654 -0.20349)
(-1.92047e-06 1.67513e-06 -1.60266e-06 -1.88781e-06 -0.0252825 0.00340475 -1.2265e-05 0.0565703 -0.203521)
(-1.55989e-06 2.53256e-06 1.15575e-06 2.9602e-06 -0.0252829 0.0034046 -2.91771e-05 0.0565819 -0.203516)
(-7.47186e-08 4.86375e-07 1.01928e-07 3.23642e-06 -0.0252611 0.00338804 -3.4001e-05 0.0566786 -0.203517)
(-1.02559e-06 -1.24987e-06 -1.3167e-06 -1.10637e-06 -0.0252797 0.00340156 -4.87083e-05 0.056584 -0.203524)
(-1.55329e-06 2.09279e-07 2.86767e-07 -2.22545e-06 -0.0252643 0.00340895 -6.13604e-05 0.0565744 -0.203516)
(-2.98816e-06 3.2163e-06 1.06404e-06 1.75007e-06 -0.0252409 0.00338235 -4.33578e-05 0.0566665 -0.203505)
(-2.67323e-05 -8.86203e-06 4.23375e-06 -7.64995e-07 -0.0253037 0.0034087 -7.86672e-05 0.0566144 -0.203503)
(-0.000236078 -0.000122562 -9.59553e-05 -5.023e-05 -0.0252861 0.00340699 -0.000333197 0.0564814 -0.203423)
(-0.00195012 -0.00055874 -0.000909611 -0.000260328 -0.0249497 0.00330317 -0.00242278 0.0555109 -0.20376)
(-0.017765 -0.000669599 0.00487124 -0.000873874 -0.0235783 0.00285519 -0.022005 0.0506927 -0.205726)
(-0.0860675 0.00310947 0.112062 -0.00666235 -0.0220274 0.00482619 -0.212783 0.0479269 -0.152271)
(-0.0887452 -0.00259484 -0.115947 0.00539134 -0.0139514 0.00256125 0.22019 0.0303754 -0.151254)
(-0.0183649 0.00042592 -0.00501358 0.000792171 -0.0148833 0.00098778 0.0229244 0.0317705 -0.206541)
(-0.00203153 0.000414277 0.000954427 0.000225318 -0.0159403 0.00130442 0.00267356 0.0350685 -0.204479)
(-0.000259237 9.70317e-05 0.000102093 5.03131e-05 -0.0161933 0.00135425 0.000368443 0.0360756 -0.204176)
(-3.11277e-05 1.2161e-05 -6.09979e-06 3.56947e-06 -0.0161821 0.00135519 0.000105724 0.0361561 -0.204246)
(-4.14933e-06 -1.87495e-06 -1.51521e-06 -3.10998e-06 -0.0161997 0.00134821 6.33601e-05 0.036322 -0.204284)
(-1.56226e-06 -5.95915e-06 1.62589e-06 -1.72915e-06 -0.0161547 0.00134624 4.8262e-05 0.0361762 -0.204263)
(-1.77262e-06 2.5181e-06 -4.20828e-07 5.52238e-07 -0.0161947 0.00135789 4.92725e-05 0.0361404 -0.204271)
(-1.04498e-06 -2.38647e-06 7.45513e-07 -9.38696e-07 -0.0161872 0.00134947 2.53218e-05 0.0362909 -0.204282)
(-2.14338e-07 -4.34164e-06 9.8189e-07 -1.34517e-06 -0.0161872 0.00134875 8.67187e-06 0.0360469 -0.204257)
(-9.87564e-07 -6.33758e-07 4.40963e-07 -2.60565e-06 -0.0161666 0.00134884 2.05976e-05 0.0361276 -0.20426)
(-1.56145e-06 1.08659e-06 -1.62614e-06 -7.90008e-07 -0.0161892 0.00135235 2.24537e-05 0.0360395 -0.204233)
(4.30377e-08 5.14498e-06 -1.50661e-06 4.52826e-06 -0.0162069 0.00135122 -7.53439e-07 0.0360632 -0.204258)
(2.64431e-07 -2.2837e-07 1.73306e-06 1.9201e-06 -0.0162071 0.00136069 4.62048e-06 0.0361643 -0.204269)
(-9.90784e-07 -4.04714e-06 9.24516e-07 -1.05508e-06 -0.0161935 0.00135292 9.15243e-07 0.0361361 -0.204264)
(-9.5391e-08 2.59086e-06 -1.07381e-06 1.09677e-06 -0.0161911 0.00135377 -6.14271e-06 0.0360422 -0.204255)
(5.38967e-07 1.27182e-06 -1.20549e-09 3.50781e-07 -0.016207 0.00136142 -2.48641e-06 0.0361599 -0.204271)
(-4.05745e-07 -5.11208e-06 1.95628e-06 -3.34333e-06 -0.0161929 0.0013527 -1.74779e-06 0.0361375 -0.204267)
(-8.37384e-07 -9.12369e-07 -5.92558e-07 -2.04687e-06 -0.0161905 0.00134365 -7.07177e-06 0.0360481 -0.204235)
(-1.59191e-06 2.21676e-06 -8.51011e-07 4.59572e-07 -0.0161995 0.00135813 -1.30815e-05 0.0361289 -0.204266)
(-1.23042e-06 3.60698e-06 -1.00213e-06 2.31951e-06 -0.0162025 0.00135634 -4.14476e-05 0.0361367 -0.204246)
(9.16985e-08 9.4477e-07 -4.85502e-07 2.79248e-06 -0.0161835 0.001346 -3.09649e-05 0.0361665 -0.204269)
(-1.49256e-06 -5.34225e-07 1.29914e-06 -3.43413e-07 -0.0161934 0.00135253 -1.73838e-05 0.0361433 -0.204272)
(-1.81105e-06 2.60722e-06 -1.9142e-06 -1.28919e-06 -0.0161844 0.00135214 -6.15461e-05 0.0361942 -0.20425)
(-3.0188e-06 -2.30525e-07 8.27013e-07 1.0744e-06 -0.0161757 0.00134023 -5.83236e-05 0.0362102 -0.204264)
(-3.20734e-05 -1.21462e-05 7.53826e-06 -4.38468e-06 -0.0162129 0.00135975 -8.26642e-05 0.0361549 -0.204245)
(-0.000260636 -9.4825e-05 -0.00010277 -4.98395e-05 -0.016189 0.00135441 -0.000390493 0.0359579 -0.204134)
(-0.00203112 -0.000410871 -0.000955443 -0.000222199 -0.0159487 0.00130977 -0.00267731 0.035081 -0.204495)
(-0.0183617 -0.000424516 0.0050144 -0.000790702 -0.0148831 0.000989315 -0.0229304 0.0317661 -0.206538)
(-0.0887443 0.00259829 0.115919 -0.00539289 -0.013939 0.00255402 -0.220135 0.0305134 -0.151258)
(-0.0904024 -0.00185944 -0.118778 0.00378908 -0.00882151 0.00124327 0.225589 0.0192357 -0.150975)
(-0.0188012 0.000268829 -0.00512104 0.000627404 -0.00929938 0.000148185 0.0236932 0.0198356 -0.207533)
(-0.00209841 0.000299559 0.000982699 0.000175977 -0.0101008 0.000350136 0.00287486 0.0222771 -0.20547)
(-0.000278812 7.45511e-05 0.0001059 4.19487e-05 -0.0103134 0.000378105 0.000446364 0.0229576 -0.205149)
(-3.64414e-05 9.4811e-06 -5.79934e-06 4.07068e-06 -0.0103208 0.000377778 0.000111116 0.0231454 -0.205217)
(-4.70723e-06 -9.86201e-08 -2.74129e-06 -1.90695e-06 -0.0103381 0.000384624 4.63989e-05 0.0230535 -0.205248)
(-1.18767e-06 -3.73779e-06 1.47135e-06 -1.63592e-06 -0.0103021 0.000371908 4.79682e-05 0.0231448 -0.205234)
(-1.82667e-06 -1.83466e-06 1.57029e-07 -9.31903e-07 -0.0103195 0.000378747 4.77981e-05 0.0230184 -0.205246)
(-9.97894e-07 -2.08825e-07 -2.63949e-07 -2.90037e-07 -0.0103291 0.000379122 1.07214e-05 0.0230348 -0.205249)
(-2.68078e-07 -3.53424e-07 8.48891e-07 -9.34115e-09 -0.0102977 0.000373905 2.29086e-05 0.0230193 -0.205243)
(-1.34987e-06 -1.04723e-06 1.90876e-07 -2.4664e-06 -0.0103078 0.000373291 1.79454e-05 0.023128 -0.205251)
(-7.83358e-07 -1.62753e-06 -5.12219e-07 -1.86181e-06 -0.010303 0.000371475 -7.05337e-06 0.0230178 -0.205233)
(6.28689e-07 2.45989e-06 1.40965e-07 3.31712e-06 -0.0103039 0.000380005 1.69976e-05 0.0229455 -0.205229)
(-4.62114e-07 -2.6687e-07 1.01652e-06 1.3189e-06 -0.0103264 0.000381499 1.98552e-05 0.0230329 -0.205242)
(-1.12649e-06 -1.37036e-06 -5.74764e-08 -4.48347e-07 -0.0103192 0.000376232 -1.34219e-05 0.0230149 -0.205241)
(2.23996e-07 1.63738e-06 -3.56267e-07 1.22029e-06 -0.0103008 0.000375678 -4.96302e-06 0.0230165 -0.205238)
(-4.36749e-08 -3.72664e-07 3.18173e-07 -3.95086e-07 -0.0103262 0.00038157 1.13303e-05 0.0230297 -0.205244)
(-6.94957e-07 -2.52633e-06 -3.60945e-07 -2.8318e-06 -0.0103185 0.000376904 -1.8485e-05 0.0230155 -0.205242)
(-2.2931e-07 -1.78374e-06 1.56196e-08 -2.07159e-06 -0.0103046 0.000367839 -8.63962e-06 0.0230203 -0.205239)
(-1.04719e-06 -7.27693e-07 9.35436e-07 -1.01488e-06 -0.010315 0.000377392 1.08544e-06 0.0229277 -0.205232)
(-1.09331e-06 5.73609e-06 -1.27091e-06 3.89392e-06 -0.0103219 0.000373524 -2.45533e-05 0.0229428 -0.205215)
(-6.07303e-07 2.29896e-06 -6.60412e-07 3.65679e-06 -0.0103195 0.000379487 -2.81713e-05 0.0231496 -0.205256)
(-1.84192e-06 -1.43849e-06 -8.86952e-08 -1.25855e-06 -0.0103187 0.000377126 -4.68847e-05 0.023021 -0.205248)
(-1.26973e-06 3.75542e-06 -2.17353e-06 2.56557e-07 -0.0103111 0.000372964 -6.10839e-05 0.0230429 -0.205241)
(-3.60726e-06 -2.47391e-06 2.58594e-06 -2.53787e-07 -0.0103066 0.000376743 -4.2856e-05 0.0230776 -0.20524)
(-3.69151e-05 -1.15146e-05 7.06919e-06 -6.04933e-06 -0.0103231 0.000378897 -0.000102598 0.0229417 -0.20521)
(-0.000279641 -6.97281e-05 -0.000105951 -3.84518e-05 -0.0103014 0.000369452 -0.000451812 0.022949 -0.205114)
(-0.00209829 -0.000297571 -0.000982629 -0.000173787 -0.0101062 0.000357277 -0.00286717 0.022277 -0.205465)
(-0.0187992 -0.000267644 0.00512009 -0.000627704 -0.0093005 0.000151296 -0.023698 0.0198283 -0.207528)
(-0.0903976 0.00186584 0.118763 -0.00379807 -0.00882844 0.00124142 -0.225563 0.019261 -0.150979)
(-0.0914211 -0.0012154 -0.120649 0.00244125 -0.00556941 0.000652077 0.229158 0.0121469 -0.150951)
(-0.0190875 0.00017006 -0.00519221 0.000452149 -0.00577013 -5.1938e-05 0.0242897 0.0123487 -0.208325)
(-0.00214862 0.000211482 0.00100041 0.000132891 -0.00638011 7.46737e-05 0.00303253 0.0141539 -0.206271)
(-0.000293619 5.30364e-05 0.000107621 3.03536e-05 -0.00653858 9.16638e-05 0.000468768 0.0145584 -0.205943)
(-3.98989e-05 7.2145e-06 -4.79609e-06 3.64922e-06 -0.00656008 9.01063e-05 0.000114622 0.0146356 -0.206009)
(-5.29065e-06 1.85942e-06 -2.68926e-06 2.51082e-07 -0.00655882 9.87252e-05 5.84634e-05 0.0146316 -0.206042)
(-1.36725e-06 -2.23858e-06 4.50528e-07 -1.64382e-06 -0.00655317 9.20031e-05 4.5607e-05 0.0147296 -0.206052)
(-1.50345e-06 -2.87829e-06 1.02203e-06 -1.31745e-06 -0.00654675 9.13812e-05 3.35317e-05 0.0146114 -0.206045)
(-8.60466e-07 1.97676e-06 -2.22827e-07 1.13526e-06 -0.00655244 9.61681e-05 2.49757e-05 0.0146196 -0.206045)
(-6.49611e-07 -7.59959e-08 -1.84287e-07 -4.38279e-07 -0.00653923 9.29343e-05 2.25982e-05 0.0147087 -0.20605)
(-1.35806e-06 -1.71026e-06 -4.50639e-08 -2.73253e-06 -0.00655061 9.1797e-05 1.53573e-05 0.0146191 -0.206043)
(-4.04749e-07 1.86896e-06 -2.83433e-07 9.39067e-07 -0.0065348 8.65528e-05 -6.79158e-06 0.0146356 -0.206039)
(6.79179e-07 4.7102e-07 4.98152e-07 1.88402e-06 -0.00652817 9.03859e-05 5.59929e-06 0.0147194 -0.206042)
(-4.88663e-07 -3.29773e-06 9.78398e-07 -1.42938e-06 -0.00655022 9.22755e-05 1.93107e-05 0.014621 -0.20604)
(-1.01051e-06 1.08409e-06 -2.39547e-07 7.73406e-07 -0.00654762 8.88962e-05 3.63467e-07 0.0146085 -0.206041)
(-8.47389e-08 1.18219e-06 -6.08418e-09 1.16676e-06 -0.00654056 9.12944e-05 -3.73396e-06 0.0147079 -0.206047)
(-2.7145e-07 -2.28249e-06 2.4395e-07 -1.61476e-06 -0.00654999 9.20008e-05 -3.20273e-06 0.0146185 -0.206042)
(-7.41045e-07 -7.79797e-07 -7.89887e-07 -1.8221e-06 -0.00654615 9.01913e-05 -6.04368e-06 0.0146094 -0.206041)
(-4.74001e-07 -2.05947e-07 -4.95032e-07 -6.65988e-07 -0.00653988 8.88273e-05 -2.29443e-05 0.0146307 -0.20604)
(-3.98805e-07 -1.24393e-06 2.85917e-07 -1.2487e-06 -0.00653044 8.71616e-05 -2.75837e-05 0.0146082 -0.206034)
(-2.96086e-07 2.71145e-06 -5.83005e-07 2.25938e-06 -0.00652692 8.26458e-05 -8.37646e-06 0.0145439 -0.206031)
(-9.38795e-07 1.58289e-06 2.34885e-07 3.02074e-06 -0.00655755 9.51235e-05 -1.17421e-05 0.0146321 -0.206046)
(-2.1726e-06 1.13853e-06 -5.57319e-09 6.08102e-07 -0.00654626 9.1391e-05 -3.35037e-05 0.0146137 -0.206046)
(-1.6101e-06 5.02424e-06 -1.99072e-06 2.34064e-06 -0.00654658 9.26122e-05 -5.98971e-05 0.0147245 -0.206052)
(-4.27997e-06 -2.6205e-06 2.01362e-06 -8.76869e-07 -0.00654241 9.61859e-05 -6.97073e-05 0.0147375 -0.206043)
(-3.9713e-05 -1.11077e-05 6.08001e-06 -7.32017e-06 -0.00653454 8.95899e-05 -9.48143e-05 0.0146158 -0.206011)
(-0.000294184 -5.14572e-05 -0.000107094 -2.89188e-05 -0.0065333 8.27948e-05 -0.000456286 0.0145743 -0.205934)
(-0.00214897 -0.000210687 -0.000999075 -0.000130996 -0.00638436 7.72033e-05 -0.00303781 0.0141525 -0.206263)
(-0.0190866 -0.000168959 0.00519123 -0.000452183 -0.00577246 -5.25594e-05 -0.0242966 0.0123466 -0.2083)
(-0.0914178 0.00122129 0.12064 -0.00244999 -0.00557376 0.000656606 -0.229144 0.0121604 -0.150955)
(-0.0920484 -0.000750194 -0.121808 0.00148981 -0.00351637 0.00037993 0.23137 0.00764975 -0.150975)
(-0.0192629 0.00010669 -0.00523652 0.000302515 -0.00357528 -5.18215e-05 0.0246881 0.00768272 -0.208848)
(-0.00218277 0.000145869 0.00101142 9.82214e-05 -0.00402877 2.83246e-05 0.00315159 0.00885499 -0.206796)
(-0.00030466 3.85565e-05 0.000108987 2.28874e-05 -0.00414021 3.67203e-05 0.000496082 0.00921048 -0.206479)
(-4.2462e-05 5.43255e-06 -4.38706e-06 3.16073e-06 -0.00415784 3.64632e-05 0.000115817 0.0092676 -0.206561)
(-5.76584e-06 1.28345e-06 -2.36194e-06 5.2678e-07 -0.00415635 3.91054e-05 5.81151e-05 0.00926694 -0.206581)
(-1.50138e-06 -1.32433e-06 2.55037e-09 -1.23899e-06 -0.00416159 4.16142e-05 4.41935e-05 0.00927323 -0.206586)
(-1.27086e-06 -1.68974e-06 9.9003e-07 -8.16682e-07 -0.00414893 3.62998e-05 3.32259e-05 0.00925412 -0.206585)
(-8.2206e-07 1.29528e-06 4.66857e-08 4.49236e-07 -0.00415191 3.8212e-05 2.57215e-05 0.009259 -0.206584)
(-1.04163e-06 1.43456e-08 -2.53269e-08 -4.67786e-07 -0.00415536 3.9434e-05 2.21564e-05 0.00926593 -0.20657)
(-1.0744e-06 -1.59911e-07 -1.08543e-06 -9.97145e-07 -0.0041513 3.9957e-05 3.11362e-07 0.00925884 -0.206581)
(1.3995e-07 2.85928e-06 -7.9443e-07 1.87478e-06 -0.00413977 3.50516e-05 7.58965e-06 0.00926756 -0.206577)
(1.55e-07 -6.24243e-07 1.28551e-06 6.36004e-07 -0.00415201 3.7866e-05 2.00132e-05 0.00935793 -0.206586)
(-6.84236e-07 -4.15592e-06 7.18583e-07 -2.64742e-06 -0.00415072 3.6421e-05 4.72606e-06 0.00926126 -0.20658)
(-6.07264e-07 5.61685e-07 -2.53692e-07 1.06271e-07 -0.00415296 3.55233e-05 4.81207e-07 0.00925058 -0.206581)
(-2.53637e-07 1.16253e-06 2.64654e-07 1.25178e-06 -0.00415515 3.68334e-05 -2.73076e-06 0.00926679 -0.206571)
(-6.41446e-07 -1.4902e-06 9.75459e-08 -9.0347e-07 -0.00415017 3.61626e-05 -4.09559e-06 0.00925961 -0.206583)
(-5.05202e-07 -5.03512e-07 -9.95656e-07 -1.70015e-06 -0.00414914 3.40909e-05 -2.00293e-05 0.00925341 -0.206582)
(-1.1463e-07 1.35682e-06 -5.90315e-07 7.16269e-07 -0.00413697 3.42051e-05 -9.34504e-06 0.00919658 -0.206557)
(-4.62117e-07 1.86401e-06 -3.00854e-07 1.69969e-06 -0.00414714 3.50352e-05 -1.44296e-05 0.00933848 -0.206583)
(-2.39422e-07 3.1488e-07 3.21457e-07 8.14591e-07 -0.00413018 3.14314e-05 -2.03938e-05 0.00934991 -0.206584)
(-9.3756e-07 -1.56954e-06 1.08862e-06 9.91342e-08 -0.00415535 4.10533e-05 -1.06625e-05 0.00926724 -0.206583)
(-1.97794e-06 7.55299e-07 -5.90947e-07 4.13679e-07 -0.0041486 3.68318e-05 -3.31902e-05 0.00925658 -0.206585)
(-1.56672e-06 4.52535e-06 -1.21455e-06 2.87689e-06 -0.00415876 3.9491e-05 -4.48852e-05 0.0092725 -0.206585)
(-5.53943e-06 -6.62696e-08 1.98147e-06 5.44782e-07 -0.00416133 4.3773e-05 -5.63043e-05 0.0093659 -0.206584)
(-4.25235e-05 -9.6931e-06 4.39097e-06 -7.16719e-06 -0.00414644 3.58669e-05 -0.000126936 0.00934373 -0.206561)
(-0.000304376 -3.96909e-05 -0.000108428 -2.38535e-05 -0.00412966 3.093e-05 -0.000496972 0.00914354 -0.206464)
(-0.00218294 -0.000145401 -0.0010097 -9.64635e-05 -0.00403156 2.76832e-05 -0.00314149 0.00885304 -0.206788)
(-0.019263 -0.000105525 0.00523597 -0.000301904 -0.00357605 -5.61801e-05 -0.0246913 0.00768146 -0.208843)
(-0.0920472 0.000755066 0.121806 -0.00149654 -0.00351704 0.000384428 -0.231367 0.00765813 -0.150978)
(-0.0924339 -0.000447185 -0.122499 0.000880659 -0.00222679 0.000235248 0.232687 0.00480005 -0.150998)
(-0.0193659 6.75788e-05 -0.00526253 0.000192682 -0.00222336 -2.52317e-05 0.024945 0.00477975 -0.209169)
(-0.00220455 9.84981e-05 0.00101812 7.05655e-05 -0.00254198 2.51687e-05 0.0032382 0.00555994 -0.207127)
(-0.000312631 2.72241e-05 0.000109249 1.67743e-05 -0.00262698 2.80898e-05 0.000517079 0.00581372 -0.206816)
(-4.4371e-05 3.98636e-06 -4.31907e-06 2.49612e-06 -0.00264501 2.72181e-05 0.000120636 0.00585789 -0.20689)
(-6.1706e-06 1.1086e-06 -1.65905e-06 9.61283e-07 -0.00264032 2.82032e-05 5.79289e-05 0.00585598 -0.206921)
(-1.63595e-06 -7.54477e-07 -1.10595e-07 -8.11107e-07 -0.00264297 3.24591e-05 4.30803e-05 0.00585837 -0.206924)