/*--------------------------------*- C++ -*----------------------------------*\
| =========                 |                                                 |
| \\      /  F ield         | OpenFOAM: The Open Source CFD Toolbox           |
|  \\    /   O peration     | Version:  2106                                  |
|   \\  /    A nd           | Website:  www.openfoam.com                      |
|    \\/     M anipulation  |                                                 |
\*---------------------------------------------------------------------------*/
FoamFile
{
    version     2.0;
    format      ascii;
    arch        "LSB;label=32;scalar=64";
    class       volVectorField;
    location    "1566";
    object      D;
}
// * * * * * * * * * * * * * * * * * * * * * * * * * * * * * * * * * * * * * //

dimensions      [0 1 0 0 0 0 0];

internalField   nonuniform List<vector> 
9000
(
(48.4922 107.58 177.406)
(-36.9939 95.8113 131.43)
(-57.8077 59.3208 81.8768)
(-48.0188 21.4802 35.1706)
(-23.0782 -1.19238 8.11466)
(1.88879 -3.77018 6.34422)
(14.2127 8.07691 22.4532)
(9.67668 22.3467 40.307)
(-4.3032 27.5067 44.7511)
(-16.197 21.3435 34.3553)
(-19.5745 8.40689 16.2886)
(-14.2485 -3.84339 0.281219)
(-4.19203 -9.67288 -6.9959)
(5.60964 -7.65715 -4.12169)
(11.1694 -0.289926 5.96095)
(10.3807 7.75466 17.6462)
(3.76389 12.0017 24.7201)
(-4.43314 10.1525 22.8678)
(-6.61416 3.54586 13.2555)
(1.09525 -1.02311 6.23485)
(13.2815 2.22548 10.8461)
(19.9733 13.1978 26.7758)
(15.162 25.3835 44.162)
(2.38189 30.4899 51.0644)
(-9.73095 26.6907 45.2116)
(-13.7452 16.932 30.9515)
(-8.70465 8.62876 19.3731)
(-2.05738 5.64774 16.1045)
(-1.63281 4.75791 16.7446)
(-10.6252 -1.14 16.566)
(46.4634 52.5137 128.007)
(-31.9392 47.9666 90.2252)
(-50.4445 27.6798 56.4827)
(-42.0066 5.96905 25.7246)
(-20.5066 -7.11786 8.12316)
(1.03517 -8.80537 7.17308)
(11.6825 -2.22873 17.8447)
(7.81289 6.2041 29.2621)
(-4.08327 10.2582 31.3297)
(-14.08 8.01365 23.8249)
(-16.8186 1.48969 11.8267)
(-12.2489 -5.13264 1.4998)
(-3.70513 -8.37627 -3.10968)
(4.68591 -7.32255 -1.1588)
(9.57923 -3.50402 5.59498)
(9.09758 0.319006 13.6835)
(3.51111 1.8654 18.9579)
(-3.61149 0.471763 18.0679)
(-5.59142 -2.82937 11.3975)
(1.06229 -5.03625 6.36251)
(11.651 -3.56983 9.42515)
(17.476 1.68106 20.3014)
(13.3233 7.70428 32.122)
(2.25919 10.4003 36.7139)
(-8.28528 8.61753 32.7642)
(-11.861 3.9097 22.9799)
(-7.53154 -0.205212 15.0119)
(-1.6861 -1.87116 12.8306)
(-1.09282 -2.73772 13.4026)
(-8.78103 -7.55807 14.3135)
(42.3346 20.1055 102.142)
(-27.0335 19.9758 70.3168)
(-43.3059 8.46495 43.9431)
(-36.1734 -4.26563 20.1872)
(-17.9591 -11.926 6.65767)
(0.285355 -13.0088 5.90235)
(9.33193 -9.19886 13.9837)
(6.1361 -3.77817 22.5066)
(-3.71493 -0.0509068 23.7219)
(-11.8583 0.0506747 17.8442)
(-13.9921 -2.89463 8.84641)
(-10.1879 -6.41381 1.22786)
(-3.15581 -8.21988 -2.12862)
(3.80777 -7.67825 -0.622404)
(7.99227 -5.83612 4.50313)
(7.77682 -4.42821 10.7415)
(3.21132 -4.52398 14.9856)
(-2.84369 -5.79723 14.5118)
(-4.65284 -7.30211 9.35325)
(0.911034 -8.24493 5.35128)
(9.89735 -7.85589 7.60378)
(14.8978 -5.85406 15.9056)
(11.4513 -3.27983 24.9515)
(2.14245 -1.91096 28.427)
(-6.81331 -2.60348 25.4757)
(-9.95345 -4.48717 17.9495)
(-6.34156 -6.19791 11.7521)
(-1.32343 -7.04045 9.993)
(-0.600638 -7.72522 10.2975)
(-6.41012 -11.9156 10.5767)
(36.7859 1.15401 82.1485)
(-22.338 3.43037 55.682)
(-36.2431 -3.38845 34.4678)
(-30.3827 -11.0558 15.4258)
(-15.3825 -15.5669 4.60567)
(-0.371963 -16.1989 3.92184)
(7.12412 -13.8027 10.2163)
(4.62939 -9.91045 16.8377)
(-3.19627 -6.19989 17.674)
(-9.54403 -4.69069 13.0914)
(-11.1196 -5.61017 6.22875)
(-8.09054 -7.39033 0.488639)
(-2.5628 -8.38248 -1.99916)
(2.96275 -8.10518 -0.799133)
(6.39818 -7.34441 3.1546)
(6.40314 -7.27401 7.99037)
(2.84613 -8.3202 11.3668)
(-2.1223 -9.6217 11.1253)
(-3.76069 -10.2378 7.11157)
(0.678188 -10.5916 3.89851)
(8.03949 -10.8871 5.53745)
(12.2375 -10.7269 11.9362)
(9.5435 -10.068 18.9644)
(2.02763 -9.4158 21.6554)
(-5.31415 -9.51926 19.4207)
(-8.00565 -9.83782 13.5471)
(-5.12179 -10.1866 8.65042)
(-0.94814 -10.5022 7.16075)
(-0.0666029 -10.9296 7.18188)
(-3.60361 -14.6566 6.43668)
(30.4451 -9.14182 64.0796)
(-17.9802 -5.84991 42.634)
(-29.3738 -10.4052 25.818)
(-24.7035 -15.3598 10.797)
(-12.8044 -18.1062 2.29804)
(-0.91958 -18.4071 1.69438)
(5.09312 -16.6632 6.51403)
(3.30532 -13.4789 11.5974)
(-2.56096 -9.6839 12.2346)
(-7.21285 -7.35766 8.81969)
(-8.28711 -7.15025 3.76836)
(-6.02102 -7.9788 -0.393463)
(-1.94987 -8.52591 -2.14317)
(2.16995 -8.37211 -1.19068)
(4.84525 -8.14511 1.76142)
(5.02462 -8.72037 5.36172)
(2.43067 -10.2343 7.92702)
(-1.46704 -11.6184 7.83125)
(-2.93523 -11.9239 4.81116)
(0.381712 -12.1237 2.28044)
(6.14311 -12.8687 3.37056)
(9.57682 -13.7003 8.11618)
(7.65622 -14.0338 13.4072)
(1.9176 -13.7305 15.4383)
(-3.83161 -13.5159 13.796)
(-6.0728 -13.0226 9.34686)
(-3.90693 -12.6707 5.58856)
(-0.556439 -12.6712 4.33214)
(0.543653 -12.8285 4.1071)
(-0.534371 -16.149 2.30364)
(23.8492 -13.5614 47.7521)
(-14.0958 -10.2544 30.8761)
(-22.9192 -14.0459 17.8452)
(-19.2983 -17.77 6.34547)
(-10.294 -19.6512 -0.097642)
(-1.33662 -19.7358 -0.593604)
(3.29592 -18.2206 2.99245)
(2.18614 -15.288 6.80079)
(-1.85329 -11.4016 7.34216)
(-4.95665 -8.63791 4.97961)
(-5.59583 -7.83869 1.50009)
(-4.0539 -8.18667 -1.30111)
(-1.34221 -8.51909 -2.40684)
(1.45801 -8.41187 -1.65393)
(3.40018 -8.37762 0.440247)
(3.71033 -9.1473 2.96339)
(1.9936 -10.7907 4.79573)
(-0.90446 -12.2591 4.78376)
(-2.21625 -12.614 2.60185)
(0.0319052 -12.9329 0.639669)
(4.28663 -13.9797 1.2283)
(7.02238 -15.2796 4.52463)
(5.86376 -16.0367 8.30507)
(1.8194 -15.8533 9.77269)
(-2.42093 -15.4614 8.63139)
(-4.23453 -14.6168 5.42212)
(-2.7514 -13.9989 2.66039)
(-0.160439 -13.8486 1.60646)
(1.21954 -13.7579 1.17867)
(2.61805 -16.6719 -1.64447)
(17.403 -13.9633 33.4588)
(-10.7774 -11.3503 20.5694)
(-17.0757 -15.2895 10.686)
(-14.3244 -18.7155 2.19218)
(-7.92404 -20.324 -2.46919)
(-1.61377 -20.3056 -2.83623)
(1.77515 -18.8025 -0.257021)
(1.28479 -15.8825 2.51758)
(-1.11438 -11.937 3.03308)
(-2.85109 -8.98005 1.60092)
(-3.12736 -7.90964 -0.528396)
(-2.25057 -8.06021 -2.17209)
(-0.762607 -8.32443 -2.72539)
(0.84845 -8.2282 -2.12697)
(2.11776 -8.18419 -0.741856)
(2.52008 -8.86673 0.880792)
(1.56399 -10.4126 2.0845)
(-0.45266 -11.9367 2.1074)
(-1.63517 -12.5394 0.589248)
(-0.360819 -13.129 -0.932301)
(2.53705 -14.3817 -0.798214)
(4.66475 -15.833 1.25362)
(4.22886 -16.6683 3.75004)
(1.74089 -16.4623 4.74705)
(-1.12653 -15.9615 4.03096)
(-2.56033 -15.0445 1.87862)
(-1.70676 -14.4437 -0.0419114)
(0.218196 -14.2681 -0.934267)
(1.92528 -13.9596 -1.52928)
(5.69493 -16.4168 -5.31684)
(11.3782 -11.72 21.3589)
(-8.06422 -10.263 11.7927)
(-11.9698 -14.8553 4.42457)
(-9.89503 -18.5367 -1.57678)
(-5.75354 -20.2516 -4.73338)
(-1.7556 -20.2359 -4.96114)
(0.548525 -18.6561 -3.18328)
(0.600155 -15.6431 -1.22533)
(-0.377813 -11.6834 -0.688776)
(-0.947687 -8.68903 -1.31125)
(-0.93523 -7.53972 -2.29294)
(-0.652899 -7.6604 -2.96674)
(-0.230134 -7.94886 -3.05594)
(0.350457 -7.8554 -2.5722)
(1.03063 -7.69673 -1.75158)
(1.4934 -8.13566 -0.850448)
(1.16558 -9.44526 -0.160453)
(-0.116367 -10.9801 -0.139037)
(-1.20491 -11.9071 -1.16633)
(-0.782475 -12.8277 -2.3737)
(0.943344 -14.2207 -2.6479)
(2.56592 -15.6405 -1.64411)
(2.79363 -16.3554 -0.214964)
(1.68842 -16.0401 0.398696)
(0.0230235 -15.4627 0.0460924)
(-1.09825 -14.6366 -1.22364)
(-0.812429 -14.2279 -2.46087)
(0.554154 -14.1151 -3.23872)
(2.61513 -13.6057 -3.97509)
(8.56194 -15.5022 -8.65654)
(5.93823 -7.88965 11.4599)
(-5.94822 -7.83086 4.52438)
(-7.65553 -13.2896 -0.918643)
(-6.07205 -17.5114 -4.91076)
(-3.82258 -19.5575 -6.8276)
(-1.77723 -19.6356 -6.91652)
(-0.388844 -17.9663 -5.76178)
(0.118731 -14.835 -4.4325)
(0.330149 -10.9062 -3.84459)
(0.723186 -7.97404 -3.77155)
(0.951706 -6.86232 -3.78787)
(0.715141 -7.04981 -3.66104)
(0.239941 -7.41972 -3.36877)
(-0.0385078 -7.3384 -2.96705)
(0.149393 -7.02823 -2.57986)
(0.64875 -7.15751 -2.23339)
(0.815279 -8.1593 -1.94455)
(0.112424 -9.65342 -1.94875)
(-0.919328 -10.8949 -2.63924)
(-1.21469 -12.1407 -3.64483)
(-0.462205 -13.6257 -4.28219)
(0.760729 -14.9166 -4.14605)
(1.58034 -15.4076 -3.5862)
(1.66536 -14.9346 -3.27652)
(1.01269 -14.2976 -3.31663)
(0.125091 -13.6528 -3.86391)
(-0.0933877 -13.534 -4.5675)
(0.82323 -13.5355 -5.27793)
(3.24285 -12.8155 -6.13583)
(11.1051 -13.9917 -11.6157)
(1.16994 -3.29236 3.66138)
(-4.38348 -4.67867 -1.32196)
(-4.12583 -11.0046 -5.36527)
(-2.87127 -15.8639 -7.7839)
(-2.15239 -18.3551 -8.7051)
(-1.69964 -18.5988 -8.66443)
(-1.05842 -16.8679 -7.98227)
(-0.182168 -13.6389 -7.12282)
(0.988611 -9.78197 -6.46466)
(2.14621 -6.97748 -5.80278)
(2.5227 -5.9763 -5.01855)
(1.84344 -6.28513 -4.24279)
(0.635927 -6.7711 -3.64515)
(-0.329784 -6.72173 -3.30044)
(-0.532972 -6.26795 -3.23401)
(-0.0128581 -6.08322 -3.29578)
(0.523611 -6.75389 -3.30589)
(0.251439 -8.15632 -3.34886)
(-0.75695 -9.64811 -3.82816)
(-1.63527 -11.1696 -4.72312)
(-1.66007 -12.7064 -5.67869)
(-0.737227 -13.8229 -6.24786)
(0.595069 -14.0466 -6.38102)
(1.67139 -13.394 -6.30477)
(1.8369 -12.711 -6.07745)
(1.10071 -12.2925 -6.04736)
(0.439123 -12.5066 -6.3526)
(1.00585 -12.6404 -7.03703)
(3.76696 -11.6674 -7.99645)
(13.2255 -11.9131 -14.142)
(-2.88857 1.44996 -2.21283)
(-3.29586 -1.26064 -5.87154)
(-1.32908 -8.30199 -8.96184)
(-0.272597 -13.769 -10.1866)
(-0.747466 -16.7423 -10.3307)
(-1.54553 -17.2021 -10.1756)
(-1.49198 -15.455 -9.84074)
(-0.331552 -12.1726 -9.31907)
(1.57961 -8.42543 -8.58002)
(3.31529 -5.7946 -7.42958)
(3.77871 -4.95256 -5.99614)
(2.73158 -5.41325 -4.70802)
(0.949367 -6.03589 -3.87461)
(-0.540079 -6.04334 -3.56934)
(-1.03545 -5.48019 -3.73097)
(-0.502894 -5.01522 -4.07849)
(0.295877 -5.36336 -4.29969)
(0.324392 -6.62834 -4.38542)
(-0.686149 -8.27835 -4.74745)
(-2.01936 -10.0009 -5.59861)
(-2.63935 -11.5519 -6.82609)
(-1.92916 -12.4772 -7.95513)
(-0.16811 -12.4263 -8.62635)
(1.70227 -11.5915 -8.72241)
(2.49595 -10.8775 -8.27119)
(1.83265 -10.7029 -7.79505)
(0.785869 -11.2557 -7.81977)
(1.08952 -11.5104 -8.50917)
(4.15355 -10.2096 -9.54294)
(14.8346 -9.27438 -16.1727)
(-6.22697 5.88729 -6.38987)
(-2.59214 2.10945 -9.26991)
(0.815295 -5.39221 -11.7673)
(1.76933 -11.3576 -12.1187)
(0.401312 -14.7989 -11.6766)
(-1.33616 -15.504 -11.4251)
(-1.72661 -13.7899 -11.3339)
(-0.362557 -10.5084 -11.0421)
(2.08592 -6.90775 -10.2186)
(4.22879 -4.48707 -8.67551)
(4.72715 -3.83984 -6.73418)
(3.38522 -4.47024 -5.05763)
(1.17471 -5.24169 -4.05209)
(-0.688261 -5.33168 -3.77544)
(-1.38358 -4.70562 -4.09174)
(-0.840387 -4.01406 -4.62666)
(0.133459 -4.06732 -4.98662)
(0.357385 -5.15733 -5.11182)
(-0.670154 -6.86587 -5.42008)
(-2.34071 -8.7039 -6.26987)
(-3.3941 -10.2309 -7.71977)
(-2.82536 -10.9617 -9.2776)
(-0.723466 -10.6486 -10.3517)
(1.74994 -9.64271 -10.5691)
(2.99297 -8.91592 -9.93926)
(2.33376 -8.98684 -9.13636)
(0.95773 -9.85908 -8.9799)
(1.07055 -10.1993 -9.69101)
(4.37794 -8.46878 -10.758)
(15.852 -6.078 -17.6321)
(-8.84879 9.72109 -9.12604)
(-2.16892 5.23327 -11.6682)
(2.40332 -2.41203 -13.8433)
(3.31571 -8.72261 -13.5837)
(1.31361 -12.5861 -12.7187)
(-1.08937 -13.5468 -12.3883)
(-1.80082 -11.9102 -12.4554)
(-0.310784 -8.68615 -12.3069)
(2.48932 -5.26966 -11.4032)
(4.88592 -3.09244 -9.56128)
(5.37781 -2.66985 -7.2461)
(3.81325 -3.48214 -5.29477)
(1.30906 -4.4094 -4.17544)
(-0.792692 -4.60505 -3.92236)
(-1.60497 -3.96441 -4.33727)
(-1.04787 -3.10655 -4.98338)
(0.034857 -2.90228 -5.42469)
(0.375887 -3.79001 -5.58076)
(-0.671179 -5.46364 -5.87224)
(-2.57262 -7.33078 -6.74028)
(-3.92042 -8.79368 -8.35825)
(-3.44053 -9.32988 -10.225)
(-1.0905 -8.77586 -11.5841)
(1.8027 -7.62001 -11.883)
(3.33157 -6.90177 -11.1238)
(2.62217 -7.21113 -10.1033)
(0.974051 -8.36778 -9.84662)
(0.955267 -8.73904 -10.579)
(4.42628 -6.45743 -11.6184)
(16.2053 -2.33148 -18.4318)
(-10.7639 12.7855 -10.6868)
(-1.92095 8.00528 -13.2112)
(3.53601 0.558283 -15.2468)
(4.43599 -5.92685 -14.5841)
(2.01683 -10.149 -13.4326)
(-0.818393 -11.3593 -13.0384)
(-1.75199 -9.83622 -13.193)
(-0.21301 -6.72388 -13.1206)
(2.76951 -3.53099 -12.1497)
(5.28412 -1.63133 -10.1033)
(5.73992 -1.46194 -7.54345)
(4.02569 -2.46699 -5.423)
(1.352 -3.55362 -4.24359)
(-0.869183 -3.87249 -4.01349)
(-1.72589 -3.26011 -4.48533)
(-1.14842 -2.29398 -5.18548)
(-0.00365182 -1.87325 -5.66413)
(0.402465 -2.54273 -5.83914)
(-0.653426 -4.10275 -6.1294)
(-2.68874 -5.91876 -7.01502)
(-4.21409 -7.27509 -8.74025)
(-3.79021 -7.61359 -10.8038)
(-1.29143 -6.84124 -12.3451)
(1.84546 -5.56288 -12.6971)
(3.51394 -4.87781 -11.8633)
(2.71852 -5.415 -10.7263)
(0.861396 -6.81117 -10.4328)
(0.76111 -7.14472 -11.1666)
(4.29718 -4.18055 -12.0927)
(15.8321 1.94353 -18.4725)
(-11.9855 15.0276 -11.3285)
(-1.74815 10.391 -14.0286)
(4.31217 3.4782 -16.0251)
(5.20255 -3.01187 -15.1177)
(2.54374 -7.52041 -13.7912)
(-0.531346 -8.96158 -13.3432)
(-1.6145 -7.57771 -13.5264)
(-0.106115 -4.6266 -13.4803)
(2.90352 -1.6985 -12.4658)
(5.41735 -0.113398 -10.3123)
(5.82004 -0.227576 -7.63468)
(4.03228 -1.43744 -5.44502)
(1.30558 -2.68393 -4.25522)
(-0.929557 -3.13554 -4.0504)
(-1.76907 -2.58392 -4.54853)
(-1.16382 -1.55988 -5.26105)
(0.0122872 -0.964031 -5.74465)
(0.455236 -1.41134 -5.9253)
(-0.585039 -2.79833 -6.21371)
(-2.66345 -4.49323 -7.09871)
(-4.26901 -5.69846 -8.86241)
(-3.8881 -5.8293 -11.015)
(-1.34929 -4.85789 -12.6477)
(1.8599 -3.48786 -13.0366)
(3.53927 -2.86407 -12.1899)
(2.64384 -3.61868 -11.0315)
(0.652652 -5.20385 -10.7479)
(0.517518 -5.42064 -11.4419)
(4.0035 -1.64228 -12.14)
(14.6825 6.7037 -17.6468)
(-12.5301 16.4859 -11.2826)
(-1.56064 12.4058 -14.2286)
(4.82418 6.33118 -16.213)
(5.68726 -0.00729479 -15.1757)
(2.93069 -4.7274 -13.7622)
(-0.231258 -6.37049 -13.2639)
(-1.4187 -5.14153 -13.4257)
(-0.0261664 -2.39486 -13.3722)
(2.86568 0.226678 -12.3493)
(5.2751 1.45686 -10.1923)
(5.62082 1.02538 -7.5244)
(3.84168 -0.403509 -5.3621)
(1.17437 -1.80689 -4.20804)
(-0.980717 -2.39056 -4.0317)
(-1.75237 -1.91897 -4.53293)
(-1.11354 -0.876915 -5.22801)
(0.0751409 -0.146071 -5.69425)
(0.546922 -0.379698 -5.86795)
(-0.439253 -1.55537 -6.14259)
(-2.47219 -3.07195 -6.99387)
(-4.0761 -4.08046 -8.71785)
(-3.7443 -3.98499 -10.852)
(-1.28653 -2.8274 -12.4947)
(1.82459 -1.39758 -12.9162)
(3.40257 -0.867136 -12.1269)
(2.41804 -1.83174 -11.0386)
(0.386376 -3.55273 -10.7967)
(0.266605 -3.5671 -11.3864)
(3.5738 1.14698 -11.7091)
(12.7229 11.8767 -15.8421)
(-12.4177 17.266 -10.7429)
(-1.28169 14.0948 -13.8953)
(5.15616 9.11012 -15.8318)
(5.95961 3.05942 -14.7415)
(3.21619 -1.79806 -13.3069)
(0.0835933 -3.60724 -12.7539)
(-1.19033 -2.53964 -12.8511)
(-0.00757284 -0.0332413 -12.7709)
(2.62801 2.24138 -11.7879)
(4.84222 3.07402 -9.73967)
(5.14066 2.28838 -7.21296)
(3.46122 0.624614 -5.17386)
(0.96561 -0.928047 -4.09835)
(-1.02417 -1.63142 -3.95236)
(-1.68822 -1.24452 -4.43724)
(-1.01448 -0.213039 -5.09363)
(0.175379 0.614253 -5.52902)
(0.684369 0.573339 -5.68601)
(-0.194972 -0.374209 -5.9282)
(-2.09172 -1.6696 -6.70008)
(-3.62294 -2.43626 -8.29521)
(-3.3644 -2.08706 -10.3001)
(-1.12414 -0.748293 -11.8773)
(1.7152 0.710064 -12.3386)
(3.09391 1.11084 -11.6878)
(2.05876 -0.061296 -10.7611)
(0.106153 -1.86455 -10.5786)
(0.0633367 -1.58827 -10.974)
(3.05312 4.16236 -10.738)
(9.93871 17.3546 -12.9451)
(-11.6709 17.5155 -9.85825)
(-0.84876 15.514 -13.0883)
(5.38368 11.8043 -14.8901)
(6.08585 6.15324 -13.7901)
(3.43967 1.22979 -12.3795)
(0.419022 -0.705805 -11.7586)
(-0.950269 0.201735 -11.7523)
(-0.0822414 2.4404 -11.6392)
(2.16124 4.33207 -10.7583)
(4.09966 4.72521 -8.94301)
(4.37407 3.54785 -6.69674)
(2.89718 1.63395 -4.8785)
(0.689382 -0.0541782 -3.921)
(-1.05593 -0.85235 -3.80325)
(-1.58366 -0.540339 -4.25244)
(-0.880997 0.462835 -4.85442)
(0.301345 1.34933 -5.25363)
(0.868435 1.46804 -5.38929)
(0.16297 0.744495 -5.57752)
(-1.50057 -0.302482 -6.21387)
(-2.8941 -0.785298 -7.5785)
(-2.74935 -0.147967 -9.33558)
(-0.881188 1.37488 -10.7747)
(1.5048 2.83241 -11.2945)
(2.59822 3.06347 -10.8764)
(1.58074 1.68049 -10.206)
(-0.140263 -0.153394 -10.0883)
(-0.0251476 0.499228 -10.1716)
(2.50247 7.3552 -9.15527)
(6.33616 22.9862 -8.84672)
(-10.3142 17.3988 -8.72845)
(-0.213246 16.714 -11.8446)
(5.57417 14.3875 -13.3858)
(6.12854 9.22155 -12.29)
(3.64054 4.29895 -10.9281)
(0.784069 2.27705 -10.2164)
(-0.714552 3.03167 -10.0706)
(-0.278627 4.98472 -9.92994)
(1.43636 6.46559 -9.22774)
(3.02612 6.38313 -7.78408)
(3.31305 4.78102 -5.96875)
(2.15547 2.60631 -4.47326)
(0.358654 0.804556 -3.66954)
(-1.06691 -0.0512534 -3.57113)
(-1.44081 0.208643 -3.96178)
(-0.725288 1.1752 -4.49667)
(0.439245 2.08464 -4.86222)
(1.09419 2.31879 -4.97948)
(0.643728 1.79544 -5.09309)
(-0.679747 1.00696 -5.52915)
(-1.87225 0.842798 -6.54758)
(-1.89627 1.80553 -7.92663)
(-0.574782 3.52158 -9.15423)
(1.16454 4.95202 -9.76226)
(1.89579 4.97165 -9.68778)
(0.995398 3.36955 -9.37583)
(-0.302356 1.55227 -9.31706)
(0.0784123 2.65701 -8.94033)
(1.99673 10.6425 -6.88182)
(1.94351 28.5704 -3.44763)
(-8.37196 17.0735 -7.40598)
(0.66022 17.7259 -10.1824)
(5.78735 16.8079 -11.3088)
(6.14619 12.1839 -10.2046)
(3.857 7.3221 -8.89621)
(1.18991 5.25046 -8.0609)
(-0.494562 5.86278 -7.74061)
(-0.620594 7.52338 -7.58775)
(0.42691 8.57909 -7.15551)
(1.60081 7.99878 -6.23933)
(1.94931 5.9518 -5.01995)
(1.24276 3.5162 -3.95532)
(-0.0107901 1.63246 -3.33668)
(-1.04369 0.766712 -3.2389)
(-1.25775 1.0071 -3.54138)
(-0.557783 1.93598 -3.9974)
(0.573377 2.83328 -4.33982)
(1.35145 3.12973 -4.45161)
(1.25044 2.76492 -4.47418)
(0.385991 2.22591 -4.63832)
(-0.540202 2.4019 -5.17937)
(-0.8001 3.72304 -6.03445)
(-0.220293 5.64406 -6.97306)
(0.664822 7.02577 -7.71016)
(0.963777 6.79546 -8.10998)
(0.311026 4.96426 -8.27049)
(-0.32903 3.20345 -8.25536)
(0.457454 4.81545 -7.23851)
(1.62061 13.8947 -3.835)
(-3.18837 33.8464 3.33486)
(-5.86976 16.6699 -5.90078)
(1.794 18.5488 -8.10653)
(6.07527 18.9775 -8.64574)
(6.19273 14.9213 -7.49611)
(4.12489 10.17 -6.22667)
(1.64862 8.07696 -5.22508)
(-0.297304 8.55817 -4.69483)
(-1.12602 9.93217 -4.55333)
(-0.887922 10.5689 -4.49684)
(-0.192692 9.49379 -4.28278)
(0.277551 7.00702 -3.84113)
(0.167986 4.32924 -3.32284)
(-0.40075 2.40633 -2.9151)
(-0.969949 1.58509 -2.78662)
(-1.0298 1.84336 -2.96162)
(-0.387548 2.73805 -3.32628)
(0.686753 3.59031 -3.66439)
(1.62577 3.89074 -3.79601)
(1.9803 3.6278 -3.71835)
(1.70644 3.30747 -3.53378)
(1.11597 3.8229 -3.44979)
(0.543605 5.52007 -3.61588)
(0.168115 7.65446 -4.18095)
(-0.0226889 8.97304 -5.09918)
(-0.221133 8.46636 -6.12731)
(-0.466635 6.40145 -6.89053)
(-0.171822 4.72626 -6.89623)
(1.19526 6.86452 -5.02585)
(1.4626 16.9232 0.0655966)
(-8.98498 38.4838 11.559)
(-2.83817 16.2734 -4.18853)
(3.19636 19.1403 -5.61393)
(6.48141 20.7626 -5.38519)
(6.31649 17.2648 -4.13076)
(4.47624 12.6586 -2.86665)
(2.17175 10.5589 -1.6469)
(-0.125808 10.9169 -0.869702)
(-1.80515 12.0247 -0.769152)
(-2.51937 12.2784 -1.20791)
(-2.36128 10.7527 -1.88991)
(-1.70025 7.8732 -2.42542)
(-1.05588 5.00126 -2.57642)
(-0.791372 3.0938 -2.39864)
(-0.828529 2.37184 -2.19316)
(-0.751286 2.6829 -2.18964)
(-0.222595 3.54812 -2.44865)
(0.762223 4.32702 -2.80983)
(1.89992 4.57388 -3.00074)
(2.82467 4.34527 -2.82339)
(3.28357 4.18753 -2.20992)
(3.10263 5.00698 -1.33646)
(2.13495 7.06629 -0.62727)
(0.576746 9.41 -0.724898)
(-0.922294 10.6627 -1.88773)
(-1.67865 9.87994 -3.72427)
(-1.33301 7.59433 -5.24049)
(0.210865 6.01979 -5.23905)
(2.36606 8.64559 -2.2691)
(1.6071 19.4652 4.89)
(-15.3457 42.0681 21.2489)
(0.679221 15.9096 -2.22155)
(4.85893 19.4066 -2.70154)
(7.03898 21.9741 -1.52483)
(6.55876 18.9837 -0.0861583)
(4.93789 14.5359 1.22443)
(2.76881 12.4241 2.72258)
(0.0203668 12.6586 3.78624)
(-2.6587 13.5364 3.81251)
(-4.46444 13.4849 2.7472)
(-4.89621 11.6151 0.957124)
(-3.96968 8.454 -0.771271)
(-2.40975 5.47832 -1.72066)
(-1.16237 3.65232 -1.78386)
(-0.60419 3.07515 -1.43894)
(-0.417577 3.46161 -1.19345)
(-0.0700535 4.29958 -1.33018)
(0.784147 4.98529 -1.75028)
(2.15595 5.13045 -2.0548)
(3.76936 4.86346 -1.78949)
(5.1086 4.78229 -0.665286)
(5.41327 5.81853 1.17789)
(3.96489 8.17199 2.97017)
(0.991459 10.6959 3.44407)
(-2.05049 11.8984 1.96175)
(-3.41939 10.8889 -0.890518)
(-2.2825 8.43268 -3.33229)
(0.84868 6.95676 -3.29331)
(4.0238 9.94447 1.05114)
(2.12491 21.168 10.6872)
(-22.1383 44.0822 32.3823)
(4.61457 15.5326 0.0573609)
(6.75281 19.1938 0.625005)
(7.76833 22.3575 2.91907)
(6.95206 19.7729 4.63872)
(5.52989 15.4677 6.06453)
(3.44577 13.3101 7.90861)
(0.144477 13.4051 9.3015)
(-3.67598 14.1067 9.21889)
(-6.70093 13.8848 7.38708)
(-7.76628 11.8672 4.26294)
(-6.49814 8.62812 1.114)
(-3.8663 5.69774 -0.765824)
(-1.49462 4.02899 -1.07207)
(-0.286905 3.61988 -0.509935)
(-0.0275262 4.07967 0.0522961)
(0.0637771 4.88586 0.0565374)
(0.740536 5.47266 -0.46587)
(2.37772 5.48885 -0.952063)
(4.79504 5.11291 -0.621658)
(7.15876 4.98599 1.09513)
(8.02234 6.07703 4.1012)
(6.0097 8.57232 7.20285)
(1.39663 11.2053 8.36131)
(-3.41149 12.4023 6.47366)
(-5.43811 11.2961 2.37303)
(-3.30547 8.78464 -1.18831)
(1.75396 7.38635 -1.08183)
(6.1893 10.4853 4.93264)
(3.06279 21.5698 17.4708)
(-29.1891 43.8819 44.8731)
(8.86362 15.0164 2.6981)
(8.82539 18.2788 4.33948)
(8.67452 21.581 7.8988)
(7.51856 19.2393 10.0096)
(6.26444 15.0212 11.6346)
(4.20363 12.7452 13.8983)
(0.25178 12.6591 15.6664)
(-4.83336 13.256 15.4415)
(-9.18257 13.075 12.6999)
(-10.9113 11.2312 8.01007)
(-9.22934 8.24706 3.20996)
(-5.3881 5.58981 0.270527)
(-1.77204 4.16148 -0.271649)
(0.124665 3.90525 0.597106)
(0.414099 4.39674 1.55837)
(0.173458 5.15527 1.72329)
(0.625378 5.6588 1.04975)
(2.55374 5.55358 0.303907)
(5.87794 5.00834 0.667703)
(9.39412 4.66765 3.05721)
(10.8791 5.54599 7.42628)
(8.22533 7.90666 12.0739)
(1.77409 10.5141 14.0341)
(-4.99256 11.794 11.6462)
(-7.70662 10.8452 6.04631)
(-4.38456 8.49869 1.15606)
(2.91704 7.13778 1.35692)
(8.8378 9.9233 9.34218)
(4.43304 20.0747 25.1995)
(-36.2661 40.6587 58.5447)
(13.2754 14.1483 5.72193)
(11.0003 16.3573 8.37915)
(9.74591 19.2193 13.3175)
(8.26919 16.8808 15.9376)
(7.14555 12.6404 17.8592)
(5.03773 10.1172 20.6212)
(0.348617 9.76741 22.8122)
(-6.09368 10.3494 22.4151)
(-11.8362 10.5234 18.6255)
(-14.2375 9.34847 12.147)
(-12.0797 7.13005 5.47782)
(-6.92671 5.07917 1.3619)
(-1.98344 3.97958 0.599408)
(0.620283 3.80366 1.86831)
(0.894613 4.22837 3.31143)
(0.254381 4.90703 3.65567)
(0.440556 5.37321 2.78038)
(2.67975 5.20486 1.69428)
(6.99102 4.44746 2.05597)
(11.7559 3.66343 5.1946)
(13.9033 3.91319 11.123)
(10.5431 5.68601 17.5476)
(2.10205 8.04276 20.4216)
(-6.76063 9.55971 17.4327)
(-10.1682 9.20597 10.0797)
(-5.49123 7.40227 3.65016)
(4.30419 6.02004 3.96743)
(11.8909 7.82902 14.2046)
(6.20603 15.9094 33.7498)
(-43.0566 33.3764 73.0894)
(17.6503 12.6241 9.09189)
(13.1862 13.0242 12.6308)
(10.9566 14.7228 19.0185)
(9.20525 12.0437 22.2738)
(8.1711 7.59172 24.6084)
(5.93897 4.6052 27.9564)
(0.441847 3.84356 30.6193)
(-7.40837 4.52141 30.0231)
(-14.5645 5.50825 25.0574)
(-17.6208 5.74205 16.5894)
(-14.9406 5.04943 7.8613)
(-8.42432 4.08329 2.4732)
(-2.12367 3.40615 1.51197)
(1.17729 3.15861 3.26871)
(1.39279 3.34021 5.26852)
(0.302463 3.88495 5.80665)
(0.196286 4.40154 4.68111)
(2.76025 4.29654 3.18141)
(8.10653 3.30451 3.51127)
(14.1692 1.75579 7.47476)
(16.9872 0.746326 15.1469)
(12.8701 1.22616 23.5569)
(2.35437 2.98167 27.4377)
(-8.66367 4.99025 23.7427)
(-12.7384 5.9392 14.3956)
(-6.58488 5.28849 6.23334)
(5.86196 3.8074 6.68644)
(15.2231 3.64533 19.4123)
(8.31545 8.03129 42.9187)
(-49.1417 20.6361 88.0603)
(21.7566 10.0442 12.6637)
(15.3023 7.73029 16.9741)
(12.2778 7.34147 24.8789)
(10.3255 3.81521 28.9561)
(9.34035 -1.17734 31.9046)
(6.9007 -4.99659 35.9924)
(0.539811 -6.42803 39.2023)
(-8.72558 -5.5123 38.3678)
(-17.2626 -3.03349 32.0575)
(-20.9266 -0.279029 21.3549)
(-17.6958 1.68869 10.3472)
(-9.82197 2.50251 3.57656)
(-2.19332 2.35418 2.43252)
(1.76472 1.77438 4.76225)
(1.88155 1.42821 7.39217)
(0.313173 1.75614 8.13343)
(-0.0919886 2.47097 6.70377)
(2.8077 2.64583 4.72587)
(9.20186 1.40904 5.02551)
(16.557 -1.38359 9.94405)
(20.0141 -4.61911 19.6014)
(15.1036 -6.5148 30.2325)
(2.50065 -5.88727 35.199)
(-10.6452 -2.966 30.6435)
(-15.3242 0.408855 19.0096)
(-7.61949 1.87214 8.90068)
(7.53628 0.186034 9.53066)
(18.7058 -3.43555 25.017)
(10.7027 -5.09905 52.745)
(-53.9825 0.350408 103.276)
(25.389 5.90938 16.0792)
(17.332 -0.327711 21.5993)
(13.7074 -4.06773 31.3872)
(11.6421 -9.25861 36.8601)
(10.6705 -15.4123 41.0655)
(7.93618 -20.7418 46.4379)
(0.657104 -23.3016 50.4611)
(-10.0095 -21.9412 49.2466)
(-19.8625 -16.8953 41.0364)
(-24.0678 -9.86663 27.308)
(-20.2688 -3.46863 13.2949)
(-11.0805 0.190035 4.73355)
(-2.19515 0.713093 3.3633)
(2.35696 -0.620385 6.43592)
(2.33706 -1.94507 9.86544)
(0.279454 -1.95681 10.8255)
(-0.413369 -0.798458 8.96089)
(2.83689 -0.000454894 6.39288)
(10.2719 -1.51348 6.78834)
(18.8769 -6.34274 13.1666)
(22.9108 -13.3674 25.594)
(17.1715 -19.3509 39.148)
(2.50848 -20.6444 45.3909)
(-12.685 -16.0783 39.4852)
(-17.8795 -8.44427 24.6964)
(-8.56755 -3.32883 12.0347)
(9.31839 -5.39509 13.0277)
(22.3248 -14.8041 32.2414)
(13.4495 -26.1003 65.2915)
(-56.9377 -31.0628 121.146)
(28.4779 -0.389545 18.4694)
(19.3802 -12.4845 27.9506)
(15.3038 -21.5273 41.3621)
(13.1904 -29.8838 50.3453)
(12.2076 -38.5016 58.1422)
(9.09742 -46.702 66.8798)
(0.822591 -51.2555 72.7721)
(-11.2622 -49.0848 70.6257)
(-22.3897 -39.5817 58.326)
(-27.0796 -25.2538 38.4008)
(-22.6854 -11.4165 18.4098)
(-12.2079 -3.12173 6.31744)
(-2.12745 -1.68871 4.44176)
(2.95401 -4.47635 8.85963)
(2.75258 -7.52842 13.7299)
(0.189844 -8.06503 14.9817)
(-0.775864 -6.03086 12.2046)
(2.85305 -4.05713 8.65193)
(11.3386 -5.98973 9.68903)
(21.1644 -14.3383 19.533)
(25.7168 -27.9188 37.8219)
(19.0922 -40.907 57.0952)
(2.35216 -45.3721 65.4174)
(-14.8518 -37.7743 56.3072)
(-20.4837 -22.6655 34.9841)
(-9.45882 -11.2821 17.3651)
(11.3011 -14.095 19.4716)
(26.345 -33.2771 46.5155)
(16.9826 -60.1321 90.0611)
(-57.342 -80.4666 153.763)
(84.3944 229.066 490.695)
(-92.6296 199.149 369.67)
(-144.36 120.452 224.957)
(-120.777 38.4395 96.2402)
(-58.9081 -10.6024 23.5807)
(3.52052 -15.7277 21.2822)
(34.6684 11.081 68.2666)
(23.5284 43.9852 118.638)
(-11.2465 57.7254 129.335)
(-40.6976 45.3762 98.4146)
(-49.1181 16.338 47.2834)
(-36.0723 -11.6502 2.98558)
(-11.3457 -24.9659 -16.7202)
(12.9441 -20.4827 -8.36507)
(27.0304 -4.37585 20.1578)
(25.607 12.367 53.7774)
(9.65867 19.9284 74.94)
(-10.621 14.7575 70.136)
(-15.9935 0.949047 41.5373)
(3.57081 -8.19017 20.087)
(34.3236 -1.0458 32.8437)
(51.206 22.585 78.7881)
(38.9352 49.0191 128.893)
(6.58007 60.2151 148.259)
(-24.1581 51.5295 131.072)
(-34.4154 30.4991 89.5266)
(-21.2393 13.2295 56.5225)
(-3.74168 7.44766 48.8569)
(-2.29118 6.66354 54.2274)
(-21.8656 -4.98352 54.3898)
(82.8673 154.486 406.079)
(-79.5881 135.591 302.402)
(-125.978 77.1891 184.444)
(-105.864 15.6258 81.2355)
(-52.6193 -21.052 23.2484)
(1.21214 -24.8815 21.415)
(28.1513 -4.60458 58.5137)
(18.7267 21.0845 97.6323)
(-10.7154 34.0378 104.321)
(-35.2884 27.1018 78.8075)
(-42.0723 6.37774 38.6018)
(-30.9795 -14.4114 4.24626)
(-10.1098 -24.4258 -10.9476)
(10.6115 -21.1617 -4.3159)
(23.0315 -9.65109 18.3591)
(22.4142 1.50223 45.6484)
(9.08969 5.27482 63.6829)
(-8.49195 0.39892 60.7426)
(-13.3874 -9.02855 37.4974)
(3.47759 -15.0789 19.7372)
(30.1485 -10.3721 29.7963)
(44.8141 5.69399 66.671)
(34.2444 24.0131 106.833)
(6.31036 32.2083 122.171)
(-20.4223 26.0263 108.724)
(-29.6267 11.6793 75.2933)
(-18.3523 -0.0106866 48.3881)
(-2.99401 -4.03701 41.9515)
(-1.19395 -4.72326 45.8751)
(-17.5133 -14.6299 45.739)
(76.8571 96.9464 328.787)
(-66.0764 86.4998 242.24)
(-106.764 42.8967 147.322)
(-90.254 -3.17396 65.15)
(-45.8942 -30.3221 19.1405)
(-0.966972 -32.9535 17.4793)
(21.6767 -17.3087 46.3288)
(14.161 3.25436 76.4591)
(-9.68471 15.8544 80.7197)
(-29.2587 13.0586 60.3917)
(-34.4455 -1.45792 29.4146)
(-25.446 -16.8539 3.25799)
(-8.64402 -24.3614 -8.22045)
(8.24442 -21.9597 -3.03633)
(18.7479 -13.8441 14.5545)
(18.8309 -6.82785 35.9938)
(8.27802 -5.91041 50.6646)
(-6.34519 -10.7245 49.0182)
(-10.7352 -17.12 30.7878)
(3.12233 -21.1092 16.5609)
(25.3602 -18.3587 24.2173)
(37.7437 -7.93152 53.0411)
(29.132 4.40345 84.5094)
(6.02277 10.3981 96.433)
(-16.3617 6.00317 86.157)
(-24.3906 -3.43887 59.868)
(-15.1586 -10.9259 38.4548)
(-2.15005 -13.4716 33.0363)
(-0.00467188 -13.7036 35.4423)
(-11.9373 -22.2015 33.7452)
(67.6543 57.5396 259.782)
(-53.1131 52.541 189.274)
(-87.6177 18.4155 113.944)
(-74.5921 -17.2359 49.2105)
(-38.9878 -37.8327 13.0895)
(-2.86313 -39.4807 11.5274)
(15.5767 -26.7395 33.6353)
(10.0304 -9.39713 56.6366)
(-8.27805 3.12325 59.517)
(-23.0177 3.23162 43.8689)
(-26.7189 -7.00151 20.5356)
(-19.8132 -18.7021 1.08477)
(-7.04452 -24.4893 -7.32801)
(5.98325 -22.6328 -3.3147)
(14.4571 -16.72 9.95674)
(15.1096 -12.347 26.2082)
(7.28778 -13.2501 37.6179)
(-4.31887 -18.1516 36.8307)
(-8.20132 -22.8841 23.057)
(2.54287 -25.8377 11.9831)
(20.2857 -24.5677 17.5361)
(30.4488 -17.9379 39.4358)
(23.9202 -9.55736 63.5059)
(5.72624 -4.99556 72.6023)
(-12.2421 -8.1773 64.9025)
(-19.0311 -14.3739 44.7033)
(-11.8465 -19.0804 28.0867)
(-1.20656 -20.5342 23.5266)
(1.43259 -20.1842 24.4945)
(-5.4242 -27.6047 20.7682)
(56.5589 33.2005 198.473)
(-41.3044 30.9546 142.511)
(-69.2639 2.26511 83.8609)
(-59.4041 -26.9198 33.8615)
(-32.1181 -43.3471 6.12354)
(-4.38264 -44.273 4.72003)
(10.0753 -33.2364 21.3258)
(6.4486 -17.7871 38.614)
(-6.61389 -5.27257 40.7586)
(-16.8669 -3.21485 29.2501)
(-19.2386 -10.5483 12.297)
(-14.3356 -19.7943 -1.59715)
(-5.39279 -24.4637 -7.43357)
(3.92842 -22.9358 -4.35008)
(10.3794 -18.3109 5.28255)
(11.4677 -15.3881 17.0356)
(6.19341 -17.2295 25.457)
(-2.51832 -22.2572 25.2071)
(-5.92639 -26.3876 15.2379)
(1.7681 -29.1 6.84302)
(15.1831 -28.9499 10.5382)
(23.2828 -24.7394 26.5174)
(18.8563 -18.7909 44.3149)
(5.43971 -15.0827 51.0668)
(-8.25149 -17.4 45.4544)
(-13.8076 -21.5779 30.4231)
(-8.58539 -24.6475 17.9488)
(-0.183204 -25.396 14.1209)
(3.15144 -24.4827 13.8012)
(1.66443 -31.0442 7.9717)
(44.6519 20.3828 144.791)
(-31.004 18.6994 101.576)
(-52.31 -7.35062 56.9598)
(-45.1594 -32.8644 19.4238)
(-25.4939 -46.8676 -1.15893)
(-5.47804 -47.3569 -2.30582)