/*--------------------------------*- C++ -*----------------------------------*\
| =========                 |                                                 |
| \\      /  F ield         | OpenFOAM: The Open Source CFD Toolbox           |
|  \\    /   O peration     | Version:  2106                                  |
|   \\  /    A nd           | Website:  www.openfoam.com                      |
|    \\/     M anipulation  |                                                 |
\*---------------------------------------------------------------------------*/
FoamFile
{
    version     2.0;
    format      ascii;
    arch        "LSB;label=32;scalar=64";
    class       volSymmTensorField;
    location    "1566";
    object      epsilon;
}
// * * * * * * * * * * * * * * * * * * * * * * * * * * * * * * * * * * * * * //

dimensions      [0 0 0 0 0 0 0];

internalField   nonuniform List<symmTensor> 
9000
(
(-669157 -10956.5 131603 -1.04155e+06 235580 3.3405e+06)
(-159450 857.038 -395705 -910841 214195 2.5055e+06)
(-16537.4 -263.696 -577613 -594394 129489 1.53417e+06)
(52094.3 -147.927 -477312 -283192 39471 657054)
(74861.4 173.989 -226586 -99345 -14720.8 158477)
(55936.4 274.749 24277.2 -83428.3 -21274.5 138132)
(11681.8 305.418 147675 -186772 6655.29 453599)
(-27773.9 297.082 99736.2 -301530 41486.6 794725)
(-38810.6 448.772 -43338.1 -325040 56201.3 870431)
(-22906.9 776.932 -163584 -250785 43903.5 663849)
(2922.82 889.455 -197287 -127358 14193.3 317860)
(23073.6 718.645 -143265 -18942.4 -14801.3 16334)
(29787.2 395.924 -42146.6 30616.7 -28727.8 -118580)
(23042.2 54.7627 56102.1 11778 -24065.6 -62433.8)
(7156.53 -183.699 111826 -56517.6 -7205.57 130594)
(-11108.3 -202.179 104038 -137181 10291.4 357118)
(-22220.7 -48.7503 37472.6 -188041 18303.5 498301)
(-15567.1 -89.7994 -46233.7 -178359 13136.9 465019)
(8292.59 -355.681 -68993.9 -114227 -1350.64 273964)
(29843.4 -618.858 9858.11 -68087.3 -11040 131609)
(28317.1 -781.418 134418 -101527 -3856.84 218449)
(2820.82 -680.705 202935 -211232 20446.2 527819)
(-26387.1 -410.467 153459 -329979 47849.8 865272)
(-37339.4 30.1947 23192.2 -376384 59563.2 996615)
(-24190.6 337.281 -99807.3 -337249 51094.8 881418)
(1539.46 292.581 -139780 -239768 29394.7 602390)
(17531.7 167.481 -85995.1 -159668 10968.7 379478)
(10607.8 -60.1901 -16469 -135313 4091.5 324807)
(-12851.7 -523.286 -9463.84 -136692 1735.27 354860)
(-69867.7 1662.56 -40781.1 -115176 -16136.9 354779)
(-591573 -14956.2 133307 -656059 235260 2.67043e+06)
(-145362 18725.8 -332462 -568767 229721 1.96314e+06)
(-15101.1 22883.6 -489431 -381419 119921 1.20463e+06)
(44906.8 18322.2 -405945 -193094 -2200.66 534800)
(64562.7 8116.03 -196728 -80502.4 -75888.3 156858)
(48283.7 -2346.03 12909.5 -69289.3 -85874.1 142940)
(10166.6 -7045.92 116151 -129568 -48844 381792)
(-23648.6 -3911.99 76462.7 -195936 1470.26 634472)
(-32839.3 3563.17 -41074.5 -206682 31880.6 678256)
(-19103.1 9693.96 -138048 -159696 25872.4 513162)
(2746.51 11074.1 -163971 -84761.4 -8239.69 252143)
(19670.3 7827.6 -119273 -19278.2 -45310.2 28730.3)
(25402.3 2243.39 -36531.2 10897.5 -63752.9 -70286.2)
(19926.5 -3102.85 44772.1 -158.266 -58088.2 -27373.5)
(6617.51 -6183.15 92658.7 -41596.5 -38354.6 119771)
(-9102.18 -5737.35 88801.7 -91371.5 -21339.6 296660)
(-19063.6 -1957.57 34790.3 -123942 -18653.7 413204)
(-13653.8 2439.37 -35928.9 -119623 -29158.3 394052)
(7010.67 3223.94 -56226.2 -81359.8 -44278.3 244474)
(25863.7 -1246.17 9870.49 -54163.6 -53601.4 130499)
(24620.6 -7652.44 114953 -75610.3 -47013.5 196107)
(2508.47 -10577.6 172748 -142889 -22325.6 434862)
(-22825.2 -7375.73 131229 -214975 7254.14 694773)
(-32412.9 -212.985 21905.5 -243006 21631.3 794427)
(-21180.3 6073.19 -82069.5 -219706 12599.9 707443)
(1130.62 7601.9 -117033 -160644 -9784.68 491366)
(15262.4 4525.95 -72321.7 -111200 -29118.2 317000)
(9658.08 852.958 -12907.2 -95161.4 -37688.4 273911)
(-10642.4 -394.54 -4604.77 -93623.5 -42828.9 296389)
(-63166.8 4296.24 -32206.3 -80817.2 -77929.7 300262)
(-520393 -18242 125104 -385198 120660 2.15464e+06)
(-128461 27274.1 -276424 -334022 136652 1.56278e+06)
(-13709.8 35074.2 -412772 -233012 45848.5 956324)
(38020.3 28296.6 -344032 -127687 -57219.4 426686)
(54688.1 12658.2 -170347 -63367.4 -118811 128991)
(40936.5 -3231.39 3790.47 -55451.1 -127098 116908)
(8776.12 -10171 89974.8 -86804.9 -94875.6 301562)
(-19570.3 -5077.19 58046.5 -120859 -47900.9 494828)
(-26991.6 6197.88 -36995.9 -123436 -11700.5 522208)
(-15415.8 14876.9 -113949 -95282.6 -7477.53 391180)
(2505.51 16523.1 -133556 -53248.9 -31873.7 191305)
(16254.4 11600.1 -97316.2 -16932.7 -61961.3 22429.2)
(20993.6 3335.43 -30887.3 -46.5282 -77288.6 -51745.3)
(16722.1 -4674.03 35104.3 -5869.69 -72746.2 -18293.7)
(5953.58 -9491.42 75373.4 -28802.9 -58352 95288.3)
(-7171.43 -9120.03 74381.3 -56947.6 -49489.5 233676)
(-15930.8 -3520.43 31551.1 -76392 -54552.4 328251)
(-11796.2 3500.85 -27196.5 -75701 -67339.2 317650)
(5632.08 5029.5 -45340.4 -55563.5 -77127.4 200705)
(21825.3 -1855.73 8771.31 -41665.3 -82625.4 109561)
(20980.1 -11750.1 96059.6 -54879.6 -80115.3 159105)
(2330.92 -16212.2 144614 -93059.6 -65833.6 344733)
(-19133 -11217 110849 -133292 -46532.1 547304)
(-27396.9 -361.078 20806.2 -148621 -35251.5 624300)
(-18143.8 9209.6 -65795.6 -136026 -41538.8 558163)
(707.627 11761.8 -96152.8 -103106 -55188 389088)
(12945 7121.61 -59717.8 -74860.8 -66664.9 251035)
(8611.38 1621.85 -9774.65 -64732.6 -72542.2 215146)
(-7630.05 191.92 -1075.5 -61439.2 -76899.9 228699)
(-48331 6571.17 -22737.3 -53238.7 -114831 221610)
(-439345 -20584.6 110687 -219355 4000.74 1.70965e+06)
(-109543 30543 -224388 -193693 36118.2 1.22478e+06)
(-12067 41380.6 -339844 -141526 -30401.5 742061)
(31290.9 33878.1 -284834 -83206.3 -105942 323182)
(45016.1 15472.8 -144554 -46351.6 -149848 88475.9)
(33759.9 -3195.41 -3879.79 -40487.4 -154979 77246.4)
(7502.02 -11179.2 66438.9 -55982.6 -129367 219258)
(-15480.6 -4913.28 42242.8 -72755.4 -89178.4 367372)
(-21260.1 8242.21 -31495.6 -72247.5 -50769 385955)
(-11885 17862.7 -89988.3 -55562.5 -37489.6 284801)
(2180.22 19369 -104048 -31917.1 -50571.9 133822)
(12835.2 13546.7 -75930.4 -11737.4 -71310.9 7867.06)
(16579.9 3986.14 -24984.1 -2295.26 -82234.1 -46635.8)
(13441.5 -5363.26 26230.3 -5203.95 -78975.9 -20569.1)
(5160.59 -11177.9 58730.3 -17317.4 -70442.4 65556.7)
(-5328.07 -11052.6 59941 -32191.2 -69226.5 170993)
(-12788.2 -4688.21 27686 -42827.6 -80395.5 244923)
(-9910.23 3724.18 -19294.4 -43658.8 -94485.4 239780)
(4200.74 5713.61 -35325.1 -34663.2 -99837.7 150843)
(17700.3 -2471.9 6872.04 -29091.1 -102589 79407.9)
(17339 -14179.8 76841.3 -37596.1 -104512 115368)
(2256.02 -19339.3 116786 -58846.9 -100872 256860)
(-15314.9 -13248.2 90948.6 -80654.8 -92354.4 412351)
(-22286.5 -431.595 19726.9 -88646.6 -84736 471288)
(-15049.9 10864.9 -49971.9 -81842.9 -88040.2 421616)
(288.539 14051.9 -75669.6 -64015.7 -92789.3 291252)
(10586.3 8631.59 -47210.4 -48545.9 -96281.2 183686)
(7582.78 2318.98 -6488.15 -42230.4 -98819.2 153437)
(-3983.2 1175.29 2871.9 -38274.7 -100999 158382)
(-29840.8 8226.64 -11849 -31750.6 -136677 136024)
(-355557 -21786.4 92659.8 -110366 -68839.6 1.31277e+06)
(-89728.4 29960.9 -176908 -102635 -30260.5 925726)
(-10085 42832 -270472 -79931.1 -82685.1 548394)
(24854.2 35790.7 -227909 -50356.7 -139750 223292)
(35675.9 16796.4 -119133 -30632.4 -171271 42107.9)
(26846.2 -2535.19 -10093.6 -26527 -173633 32072)
(6337.35 -10659.6 45348.4 -33134.3 -151838 139199)
(-11481.1 -3927.69 28675.3 -40331.9 -115803 251057)
(-15777.3 9627.08 -25020.4 -39012.5 -76135.4 264966)
(-8589.22 19102.9 -66549 -29604.1 -56850.3 190349)
(1787.74 20248.2 -75724.1 -16713.9 -61978.7 80326.7)
(9505.85 14105.7 -55325.1 -5972.53 -76144.2 -9953.08)
(12286.5 4282.19 -18954.6 -1024.59 -84002.8 -47883.7)
(10192.7 -5357.19 18174.4 -2300.21 -81475.2 -27703.8)
(4282 -11503.7 42975.9 -7749.11 -76318.8 35219.8)
(-3621.88 -11665 45854.9 -14049.7 -79122.3 111987)
(-9737.49 -5370.52 23412.3 -18528.4 -93301.1 166920)
(-8048.84 3299.75 -12300.3 -19780.4 -108470 165192)
(2773.13 5412.65 -26317.2 -17821.2 -112690 100245)
(13617.5 -3132.19 4294.08 -17559.3 -115280 45617.3)
(13792.7 -15255.7 57692.4 -23194.4 -120706 69543.7)
(2269.65 -20430.6 89676.5 -34145.6 -123893 173168)
(-11488.8 -13821.6 71772.9 -44764.7 -122034 288611)
(-17231.7 -392.426 18684.9 -48281.6 -116593 332526)
(-11985.6 11380.5 -34776.3 -44565.8 -117750 296252)
(-112.985 14775.6 -55856.6 -35842.3 -116970 198850)
(8274.54 9152.53 -34991.8 -28591.9 -115758 117687)
(6675.87 2835.51 -2960.2 -25098.1 -115997 92265.1)
(33.1011 2214.63 7716.36 -21212.5 -115790 89541.6)
(-10149.8 9178.87 59.8514 -15115 -148287 51376.7)
(-274932 -21972.9 72960.2 -36161.4 -97774.4 962716)
(-70152.7 26647.3 -135179 -41253.2 -61629.7 662261)
(-7803.76 40481.4 -206471 -36632 -110236 374025)
(18937.9 34718 -174601 -25167.6 -158854 128846)
(26942.5 16827 -94674.1 -16633.1 -184174 -6282.84)
(20384.9 -1530.31 -14719.1 -14239.2 -184722 -14497.1)
(5284.14 -9106.6 27100.9 -16044.6 -164210 64177.2)
(-7723.82 -2462.69 17421.9 -18027.3 -129616 146773)
(-10714.2 10412.3 -18006.5 -16898.2 -89195.4 158480)
(-5613.81 19028.7 -44360.1 -12167.9 -66520.5 107213)
(1354.12 19687.5 -49354.6 -5695.45 -66936.2 31857.3)
(6380.42 13628.9 -36088.1 -610.604 -77412.6 -28453.4)
(8267.86 4283.34 -13021.9 1511.13 -83694.4 -52280.7)
(7113.59 -4849.52 11157.2 1079.33 -81446.3 -36702.9)
(3378.48 -10779.7 28688 -293.088 -77336.7 6897.43)
(-2109.86 -11201.8 32767.7 -1097.71 -80879.3 59344.2)
(-6922.18 -5583.87 19032.9 -1337.11 -95378.3 97583.1)
(-6314.77 2436.43 -6454.22 -2387.47 -111376 97749.5)
(1404.55 4369.9 -18707.9 -4616.57 -117189 52428.8)
(9754.31 -3808.76 1111.48 -7539.54 -121700 11407.2)
(10485.7 -15282.8 39285.4 -11347.1 -129706 24566.6)
(2365.71 -19963 64188.1 -15995 -136256 95826.1)
(-7804.48 -13282.9 53938.2 -19758.9 -137249 177334)
(-12427 -231.195 17763 -20488.4 -132515 208731)
(-9080.89 11071.4 -20632.4 -18342.2 -132141 183531)
(-495.699 14268.6 -37402 -15164.5 -128881 114123)
(6111.14 8826.8 -23569.2 -13297.4 -126115 55476.3)
(5956.4 3085.6 668.644 -11976.6 -125348 34051.3)
(4167.74 3063.61 13339.4 -8483.03 -123043 24659.9)
(9369.86 9497.25 12351 -2008.08 -152216 -28902)
(-201258 -21422.9 53005.2 13810.7 -94033.8 661874)
(-51718 21623.7 -99971.1 -65.1552 -67026.9 434958)
(-5320.49 35536.5 -149463 -6070.47 -118676 220026)
(13727.4 31486.3 -126255 -5749.63 -165863 41807)
(19065.9 15834.1 -71829.7 -4503.07 -189552 -54203)
(14548.8 -430.045 -17738.7 -3750.76 -189352 -60080.1)
(4347.84 -6985.42 11982.8 -3265.82 -168790 -4231.16)
(-4334.29 -798.329 8523.62 -2662.78 -134106 55068.5)
(-6203.83 10709.9 -10819.9 -2113.82 -93441.1 66113.2)
(-3019.47 18054.1 -24004.2 -383.434 -69151.8 35141.5)
(900.786 18167.1 -25560.5 2242.27 -66997.2 -10895.8)
(3547.13 12442.7 -18713 3947.04 -75709 -46151.5)
(4648.53 4044.31 -7398.62 4276.75 -81474.7 -58091.8)
(4320.55 -4048.13 5328.47 4173.53 -79312.1 -45992.4)
(2507.44 -9364.68 16315.5 5106.69 -74790.5 -18000.7)
(-830.656 -9984.81 21200.6 7587.32 -76938.6 14580.5)
(-4459.11 -5407.6 14824.3 10090.5 -89917.2 38846.6)
(-4798.74 1360.25 -1902.24 9592.28 -106335 39762.4)
(137.761 2898.29 -12767.8 5301.87 -115214 9540.21)
(6258.33 -4435.61 -2577.3 788.959 -122803 -21191.8)
(7538.36 -14565.3 22187.2 -1807.48 -132737 -17661.5)
(2537.71 -18426.7 41069 -2706.26 -140421 26308.8)
(-4385.8 -11985 37957.6 -2390.45 -141787 79503.1)
(-8033.09 38.9579 17051.6 -1400.98 -136734 100604)
(-6451.83 10228.1 -7869.01 -9.75942 -135096 84711.7)
(-870.339 12899.4 -20891 -148.74 -131344 38783.8)
(4167.79 7853.49 -13416.2 -1717.69 -129227 -1239.33)
(5448.06 3042.79 4158.67 -1998.57 -128544 -19661)
(8215.1 3621.91 19369.5 1141.57 -124527 -34892.3)
(27894.4 9304.01 24402.7 8773.06 -149927 -103298)
(-136635 -20403.6 33769.1 45552.7 -68728 411192)
(-35022 15757.8 -71484.9 26396 -55244.5 243714)
(-2746.21 29120.3 -100377 14998.8 -113630 87016)
(9324.42 26898.9 -83769.1 9030.34 -163490 -36437.8)
(12209.1 14106 -51112.2 5748.84 -188478 -99892.1)
(9453.09 583.659 -19268.8 5025.14 -188543 -103160)
(3533.63 -4670.36 42.6779 6271.31 -167528 -65275.1)
(-1389.51 856.776 1900.78 7856.28 -132185 -24164.8)
(-2321.76 10632.5 -3742.32 7731.17 -91749.3 -12822.4)
(-836.125 16511.3 -5842.84 7545.06 -66969.9 -26334.7)
(442.182 16068 -4710.04 7854.93 -63549.2 -47673.2)
(1057.64 10814.6 -3513.92 7578.03 -71629.1 -62171.3)
(1505.03 3613.3 -2262.68 6785.29 -77550.4 -64250.9)
(1891.15 -3137 714.067 6673.54 -75484.4 -54683.5)
(1714.41 -7591.57 6078.47 8669.68 -69869.9 -38869.2)
(202.415 -8328.87 11455.7 12819.1 -69525.2 -21869.3)
(-2414.64 -4941.01 10996.8 16899.8 -79918.2 -8761.12)
(-3555.73 272.693 1355.57 17124.8 -96248.2 -7914.98)
(-999.163 1298.73 -8556.61 12333.7 -108572 -27304.3)
(3222.38 -4937.21 -6626.2 7412.2 -119595 -50873.3)
(5022.59 -13356.8 6790.28 5669.46 -131021 -55931.6)
(2775.43 -16241.1 20789.4 6872.79 -138603 -34646.4)
(-1316.25 -10231.7 24149.6 9455.56 -138959 -4672.98)
(-4155.92 386.296 16621.6 11457.3 -132936 8127.32)
(-4180 9074.7 3326.15 12479.2 -130125 197.616)
(-1253.18 10996.4 -6696.21 10437.9 -127031 -26320.8)
(2478.61 6441.32 -4878.54 6822.8 -126909 -51467.5)
(5141.33 2735.52 7237.59 5494.48 -127090 -67976.8)
(12011.7 3900.56 25348.1 8580.5 -121600 -88420.2)
(44874.8 8723.45 35672.4 18188 -142200 -171001)
(-81985.1 -19096.4 15882.9 63207.1 -30926.6 209443)
(-20390.6 9752.77 -49450.3 41882.8 -33184.6 87053.1)
(-185.746 22154.5 -59458.7 28880.3 -99605.2 -25272.6)
(5749.42 21638.2 -47553.9 20045.8 -154076 -105108)
(6442.23 11911.2 -32852.6 14223.9 -182043 -142082)
(5150.61 1403.22 -19517.5 12277.9 -183240 -142723)
(2843.94 -2425.59 -8872.65 13411.4 -161911 -118696)
(1078.49 2361.39 -2628.98 15031.5 -125923 -91466.9)
(906.682 10269.8 3016.11 14260.7 -86103.2 -79218.5)
(932.336 14635 9940.47 12836.6 -61542.5 -77857.3)
(-12.0664 13660.4 13038.4 11725.6 -57668.6 -78533.6)
(-1067.65 8943.24 9353.9 10314.5 -65758.3 -76036.8)
(-1130.47 3031.29 2245.01 8833.16 -72243.5 -70095.8)
(-135.822 -2257.29 -2767.99 8502.55 -70417.4 -62302.1)
(1030.89 -5727.86 -2013.8 10715.9 -63581.3 -55648.2)
(998.828 -6496.75 3628.57 15393.2 -60403.3 -50362.5)
(-804.489 -4279.31 7690.14 20185.3 -67737.2 -45760.6)
(-2601.91 -672.449 3448.52 21178.4 -83448.9 -45512.9)
(-1990.67 -185.614 -5939.31 16942.3 -98834.6 -57738.8)
(685.685 -5246.07 -10842.1 12435.1 -113074 -76846)
(2963.12 -11844.7 -6665.61 11356.9 -125666 -89525.4)
(3063.82 -13723.2 3572.03 13631.9 -132555 -86834.5)
(1356.94 -8258.15 12653.8 17315.8 -131235 -75569.1)
(-851.479 768.619 16511 19845.7 -123862 -69283.2)
(-2310.4 7763.42 12877.1 20637.4 -119934 -70321.8)
(-1659.11 8818.83 5008.91 17580.9 -118114 -81063)
(1047.21 4781.34 1837.98 12909.8 -120703 -94779.5)
(5004.36 2232.68 9645.69 11059.9 -122208 -110442)
(15422.9 3977.19 30815.8 14537.5 -115209 -135576)
(59884.7 7863.3 45694.5 26918.1 -129352 -231313)
(-37407.7 -17590.1 -257 70047.1 12227.1 53522.5)
(-7943.66 4162.16 -33242.4 49276.7 -6020.76 -37605.8)
(2268.32 15335.3 -26411.8 37407.4 -80011.7 -117818)
(2960.16 16235.1 -17604.6 28068.3 -139530 -163897)
(1757.44 9480.49 -17206.8 21113.9 -171268 -179866)
(1640.96 1984.26 -18736.6 18251.5 -174268 -178067)
(2276.21 -416.803 -15053.4 18834.6 -153022 -164489)
(3070.54 3625.87 -5321.49 19968.5 -116708 -147554)
(3492.57 9681.54 9292.26 18605.5 -77811.7 -134001)
(2301.13 12574.7 23281.1 16345.8 -53935.5 -120119)
(-454.151 11120.5 27672 14323.2 -50151.3 -103728)
(-2830.16 6965.56 19853.1 12274.2 -58613.1 -87545.4)
(-3259.84 2332.9 6018.25 10378.7 -65906.8 -75242.4)
(-1753.35 -1503.53 -5274.57 9712.95 -64539.5 -68650.1)
(475.389 -3964.29 -8108.94 11610.3 -56703.8 -68623.9)
(1584.88 -4683.12 -2344.91 16067.2 -50850.2 -71746)
(396.445 -3502.58 4983.07 20969.5 -55058.3 -73316.2)
(-1920.84 -1375.79 4597.41 22688.1 -69652.5 -73946.8)
(-2830.06 -1385.57 -4637.36 19624.3 -87271.4 -81910.3)
(-1354.68 -5311.28 -14995.8 16048.3 -104151 -98701.5)
(1347.06 -10154.2 -18052.2 15553.8 -117627 -118070)
(3382.71 -11092.2 -10545.4 18295.6 -123597 -130378)
(3612.92 -6235.05 3469.55 22359.4 -120381 -133883)
(1862.75 1140.12 16719.3 25073.9 -111468 -132528)
(-856.016 6388.4 20781.9 25650.9 -106513 -127615)
(-2096.67 6556.64 14206.2 22124.4 -106260 -125813)
(-142.295 3036.29 6654.19 17087.4 -111841 -131148)
(4991.76 1628.01 11168 15188.1 -114839 -146881)
(18329.5 3960.6 35356.5 19544.4 -105961 -176137)
(72533.8 6809.35 54062.9 35380 -111424 -283358)
(-2436.85 -15902.3 -14394.1 68847.4 55261.5 -61096.9)
(2339.24 -596.422 -21991 50910.9 22508.1 -133544)
(4534.9 9147.95 -563.375 42093 -57320.7 -192031)
(872.418 11072 6396.93 33797.2 -121341 -212811)
(-1909.4 7001.58 -4178.94 26671.3 -157037 -212589)
(-1116.77 2328.5 -17181.1 23211.3 -162297 -208672)
(1820.96 1266.42 -18869.1 23084.7 -141616 -202738)
(4607.39 4595.74 -6482.6 23478.9 -105431 -193146)
(5470.27 8898.36 14944.1 21556.6 -67720.7 -178029)
(3298.65 10414.3 34181.5 18678.1 -44864 -153793)
(-875.566 8552.7 39267.2 16023.4 -41562.7 -123601)
(-4244.01 4969.16 28025.9 13611.6 -50607.6 -96669.3)
(-4907.49 1547.88 8981.83 11470.6 -58857.9 -79495)
(-2977.23 -927.513 -7002.97 10425.4 -58202.3 -73705.8)
(55.7775 -2418.7 -12452.7 11717.5 -49781 -78269.5)
(1996.99 -3015.62 -6633.79 15518.7 -41696.9 -87100)
(1240.93 -2672.91 2908.93 20149.2 -42965.1 -92890.9)
(-1473.04 -1788.94 5073.07 22492.4 -56007.7 -94475.5)
(-3515.63 -2203.96 -4287.03 20866.8 -74843.6 -100280)
(-2929.8 -5100.57 -18836.6 18493.1 -93597.4 -116305)
(135.303 -8359.81 -27313 18566.7 -107675 -141421)
(3706.86 -8486.32 -21648.4 21459.2 -112692 -165566)
(5447.15 -4280.2 -3507.09 25484.8 -107608 -180435)
(3996.09 1456.21 17206.1 28135 -97122.5 -182641)
(195.568 5001.65 27082 28463.2 -91274 -172692)
(-2565.12 4340.31 20987.9 24792.6 -92687 -161238)
(-1114.69 1339.16 9598.2 19856.6 -101249 -160801)
(5051.51 1027.17 11656 18308.4 -105660 -177269)
(20617.6 3968.14 38620.8 23989.7 -94220.1 -209869)
(82419.8 5626.61 60412.1 43763.2 -88331.8 -325964)
(23772 -14009 -26345.4 62033.5 94206.9 -139901)
(10563.4 -4233.58 -14681.1 48704.3 49867 -204365)
(6542.21 3896.21 18983.2 44174.7 -33213.4 -249493)
(-620.975 6401.14 24979.2 37848 -100608 -252019)
(-4658.24 4619.25 6349.33 31171.4 -140065 -239752)
(-3191.88 2467.3 -15081.7 27414.6 -147838 -234094)
(1460.41 2588.56 -20722.8 26585.9 -128179 -233508)
(5718.78 5239.51 -6450.7 26148.1 -92621.2 -228859)
(6887.03 7927.37 19829 23668.3 -56352.8 -212045)
(3961.85 8190.77 42671 20266.2 -34792.8 -179493)
(-1265.36 6009.26 47944.6 17120.3 -32284.4 -138522)
(-5328.65 3004.86 33961.3 14483.3 -42048.4 -103475)
(-6110.22 702.774 11087.7 12198.6 -51349.1 -82771.9)
(-3837.45 -545.249 -8160.8 10787.1 -51659.7 -77543.5)
(-228.188 -1147.48 -15336.1 11368.3 -43140 -85122.3)
(2275.56 -1564.92 -9463.06 14315 -33399.4 -97545.3)
(1796.66 -1836.28 1469.17 18458.1 -32048.4 -105991)
(-1205.42 -1905.81 5159.26 21287.5 -43191.3 -108446)
(-4047.14 -2603.78 -4490.7 21110.3 -62223.5 -113465)
(-4085.92 -4598.47 -22104.8 20026.2 -82024.9 -129697)
(-726.979 -6497.33 -34429.8 20686.6 -96399.7 -159563)
(4005.96 -5980.96 -29893.5 23604.8 -100503 -192743)
(6862.95 -2469.74 -8449.83 27378.5 -93709.5 -216043)
(5574.65 1676.15 17893.9 29785.8 -81734.6 -220668)
(875.729 3625.47 31837.3 29817.9 -75162 -206646)
(-3052.85 2253.33 25517.7 26188.3 -78224.6 -188141)
(-1894.82 -203.658 10786.5 21659.1 -89572.5 -184097)
(5130.31 539.279 11042.9 20785.1 -95115.8 -201637)
(22172.2 4113.71 40339.6 28141.3 -80174 -236437)
(89105.8 4363.5 64407.4 52071.8 -59989.6 -357633)
(42291.2 -11872.8 -35965.4 51736.4 126467 -188898)
(16878.2 -6582.89 -10246.1 44218.8 74526.3 -253678)
(8226.94 -264.205 33221.3 44628.7 -8731.6 -291757)
(-1634.56 2369.42 38791.9 40730.6 -78093.5 -281728)
(-6607.62 2440.04 14589.4 34874.5 -120889 -260918)
(-4671.66 2448.54 -12627.7 31084.8 -131248 -253888)
(1167.89 3550.3 -21018.6 29652.7 -112995 -256766)
(6435.21 5541.23 -5582.99 28383.6 -78551.8 -255141)
(7795.05 6758.74 23788.4 25325.7 -43998.9 -236650)
(4332.75 5907.33 48775.4 21418 -24001.7 -197747)
(-1609.01 3505.64 53834.4 17834.2 -22556.3 -148839)
(-6103.13 1097.09 37769.7 15024.4 -33147.1 -108063)
(-6908.91 -177.359 12312 12660.5 -43562.4 -85048.1)
(-4371.05 -344.713 -8942.1 10943.9 -45067.2 -80271.7)
(-382.764 -159.774 -17054.1 10841.3 -36924.3 -89694)
(2459.74 -358.523 -11075.9 12900.6 -26118.9 -104112)
(2135.63 -1026.76 643.097 16455.6 -22524.5 -113999)
(-1059.05 -1751.97 5123.79 19609.6 -31517.9 -117123)
(-4422.76 -2592.84 -4855.9 20723.4 -49836.7 -122118)
(-4873.86 -3802.64 -24541.2 20888.5 -69883.4 -139011)
(-1301.87 -4574.29 -39394.9 22168.5 -84221.9 -172528)
(4244.88 -3604.84 -35465.5 25110.6 -87449.9 -212217)
(7864.85 -847.46 -11574.2 28555.5 -79155 -241425)
(6633.1 1763.78 18670.1 30598.7 -65859.3 -247581)
(1229.2 2260.32 35106.1 30285.9 -58756.7 -230535)
(-3536.28 343.338 27998.8 26788.7 -63387.1 -207340)
(-2500.35 -1507.18 10409 22859.3 -77207.7 -201432)
(5178.34 272.371 9355.13 22909.2 -83450.3 -219992)
(22875.1 4502.83 40340.3 32161.7 -63893.2 -255358)
(92114.3 3057.16 65746.1 60161.5 -26400.1 -376565)
(54295.8 -9466.55 -43135.1 39798.9 150682 -214190)
(21449.8 -7592.53 -7648.28 38683 95766.8 -284848)
(9535.42 -3290.9 43147.5 44176.7 15566.4 -320191)
(-2278.78 -954.763 48538.1 42830.5 -54288.8 -302083)
(-7881.58 538.605 20819.9 37992.7 -99890.1 -275634)
(-5653.22 2327.15 -9956.84 34389.1 -112762 -267533)
(908.074 4175.33 -20138.5 32494 -96200.6 -272326)
(6782.24 5496.43 -4244.25 30446.6 -63319.8 -272235)
(8245.7 5372.68 26637.8 26783.7 -30783.9 -252272)
(4455.63 3544.66 52494.1 22342.8 -12633.1 -208976)
(-1887.65 1031.59 57050.6 18317.1 -12515.5 -154841)
(-6581.88 -747.391 39564.4 15335.2 -24043 -110532)
(-7342.31 -1067.19 12653.2 12941 -35618.4 -86314)
(-4616.84 -293.117 -9509.7 11021.4 -38493.7 -81986)
(-418.855 568.502 -17876.7 10353.7 -31131.9 -92409.7)
(2583.36 605.342 -11708.4 11600 -19800.6 -107659)
(2326.33 -271.199 393.086 14536.9 -14345.6 -118077)
(-974.661 -1374.57 5198.14 17840 -21045 -121597)
(-4636.8 -2209 -5021.45 19989.9 -37915.1 -126850)
(-5341 -2719.86 -25892.9 21281.6 -57481.8 -144402)
(-1652.21 -2578.35 -42190.1 23214.1 -71422.1 -180337)
(4384 -1352.99 -38545.3 26254.3 -73765.9 -224198)
(8453.51 567.551 -13114.8 29384.8 -64172.6 -257136)
(7208.06 1687.06 19390.3 30991.1 -49779.1 -264202)
(1309.58 889.807 36927.8 30282.8 -42360 -245302)
(-3978.82 -1368.74 28649.7 26943.4 -48448.1 -219578)
(-2936.11 -2502.54 8719.6 23729.5 -64357.4 -213155)
(5153.68 331.406 6724.73 24888 -70751.4 -232258)
(22606.5 5230.77 38565.5 36113.6 -45381.5 -265966)
(90929.9 1737.5 64169.1 67763.8 12274.8 -380690)
(60960.4 -6789.12 -47768.5 27753.2 166570 -221579)
(24446.5 -7310.89 -5941.24 33003.9 113482 -300812)
(10426.1 -5221.53 49701.4 43296.7 39453 -335882)
(-2652.65 -3556.72 54928.1 44396.7 -29498.7 -313095)
(-8600.85 -1035.28 25365.8 40661.6 -77329.8 -283362)
(-6237.35 2158.78 -7152.62 37416.4 -92522.9 -274384)
(637.846 4501.07 -18427.6 35210.2 -77837.3 -279800)
(6777.02 5110.07 -2797.33 32467.7 -46916.5 -280137)
(8285.2 3745.55 28162.3 28182.5 -16723.4 -259136)
(4374.77 1069.35 53784.8 23161.5 -736.822 -213458)
(-2077.61 -1439.67 57672.8 18655 -2232.95 -156734)
(-6771.69 -2532.32 39449.4 15476.1 -14829 -110949)
(-7442.75 -1939.71 12132.3 13100.5 -27591.6 -86549.3)
(-4611.98 -343.245 -9983.07 11114.5 -31939.5 -82735.4)
(-351.388 1082.45 -18029.7 10058.6 -25654 -93566.8)
(2672.04 1345.71 -11574.7 10628 -14242.9 -108825)
(2428.58 406.875 666.066 12953.8 -7294.07 -119122)
(-895.99 -834.009 5564.62 16222.7 -11665 -122734)
(-4678.03 -1508.27 -4672.9 19105.4 -26551.8 -128173)
(-5525.96 -1363.06 -25915.8 21351.1 -45020.2 -145998)
(-1836.98 -484.565 -42771.3 23959.7 -58176.7 -182945)
(4379.58 802.593 -39285.6 27214.5 -59551.8 -228748)
(8621.99 1774.45 -13307.2 30103.8 -48820.9 -263519)
(7332.85 1417.1 19878.8 31239.8 -33580 -271146)
(1175.92 -515.739 37307.9 30080 -26079.9 -251705)
(-4329.93 -2881.63 27685.8 26874.5 -33516.8 -225474)
(-3189.49 -3132.8 6029.77 24438.3 -51088.2 -219520)
(5026.27 816.785 3401.39 26832.2 -56999.9 -238228)
(21247.5 6380.57 35096 39956.5 -24626.4 -267376)
(85010.5 429.308 59480.3 74499.1 55653.7 -367724)
(63377.3 -3870.14 -49822.8 16788 174723 -216217)
(26031.5 -5866.8 -4307.5 27778.3 127981 -303965)
(10871.8 -6144.88 53737.7 42239.4 62886.3 -339592)
(-2840.23 -5454.96 58652.5 45534.7 -3924.12 -314594)
(-8877.77 -2250.72 28582.6 42917.7 -53404.7 -283433)
(-6524.09 1995.43 -4244.94 40157.6 -70640.2 -273627)
(307.637 4572.34 -16185.4 37785.6 -57917.1 -278571)
(6426.57 4395.69 -1595.08 34450.2 -29294.6 -278578)
(7951.89 1855.63 28116.3 29549.1 -1782.24 -257230)
(4132.71 -1557.72 52553.6 23905.7 11683.9 -211303)
(-2150.13 -3942.95 55734.6 18869.6 8249.45 -154627)
(-6669.68 -4265.69 37512.4 15465.4 -5577.21 -109345)
(-7233.59 -2765.17 10793.3 13169.2 -19529 -85707.2)
(-4390.1 -438.845 -10430.6 11280.9 -25357.4 -82499.4)
(-199.238 1438.43 -17686.1 10045.5 -20312.3 -93309.7)
(2741.27 1889.68 -10861 10101.3 -9157.23 -108013)
(2490.7 984.505 1392.5 11837.1 -1057.76 -117749)
(-771.591 -197.722 6349.2 14885.1 -3179.07 -121162)
(-4528.67 -556.434 -3550.36 18180.9 -15755 -126479)
(-5455.27 250.147 -24375.2 21177.3 -32629.1 -143867)
(-1908.16 1737.99 -41058.6 24466.5 -44600.1 -180215)
(4184.35 2903.66 -37794.7 28066.8 -44832.2 -225747)
(8353.34 2784.88 -12375.7 30822 -33058.4 -260664)
(7033.66 927.594 19929.4 31484.4 -17226.1 -268770)
(890.174 -1995.73 36206 29811.8 -9910.93 -250282)
(-4524.3 -4208.24 25305.9 26680.3 -18613.9 -225481)
(-3227.15 -3350.89 2705.91 25044.7 -37396.2 -220656)
(4781.14 1821.6 -236.311 28742.8 -42128.5 -237527)
(18684.5 8018.96 30172.6 43534.8 -1656.24 -258473)
(73803.6 -847.969 51566.2 79881.6 103077 -335229)
(62496.3 -766.91 -49303.6 7722.13 176374 -202345)
(26360.8 -3447.38 -2072.21 23311.3 139802 -296111)
(10862 -6178.38 56019.8 41048.1 85880.5 -331746)
(-2909.96 -6686.39 60370.7 46204 22251.6 -306207)
(-8814.03 -3091.33 30843.8 44679 -28310 -275011)
(-6609.78 1882.36 -1214.42 42485.2 -47246.5 -264250)
(-136.749 4437.12 -13661.9 40074.5 -36488.6 -267769)
(5727.51 3375.48 -973.375 36264.4 -10438.1 -267005)
(7274.69 -311.172 26227.2 30790.4 14062 -246290)
(3768.97 -4372.64 48653.3 24512.6 24620.6 -202435)
(-2071.5 -6512.36 51219.9 18918.5 18881.8 -148526)
(-6262.57 -5954.19 33823.7 15280.9 3636.2 -105706)
(-6728.08 -3510.71 8705.75 13145.3 -11469.2 -83707.4)
(-3980.75 -519.417 -10865.7 11536.6 -18675.5 -81172.7)
(14.5311 1696.43 -16961.9 10339.7 -14893.4 -91613.4)
(2795.4 2266.12 -9724.73 10048.1 -4217.87 -105376)
(2548.27 1438.05 2484.07 11215.5 4708.83 -114299)
(-555.526 464.328 7618.12 13858 4643.37 -117284)
(-4164.14 576.133 -1451.54 17249 -5496.81 -122028)
(-5141.95 2097.05 -21047.2 20771 -20411.2 -137997)
(-1909.01 4119.38 -36932 24713.7 -30791.9 -171894)
(3748.2 4997.03 -34127.7 28777.7 -29614.1 -214865)
(7619.4 3617.89 -10525.6 31517.1 -16813.2 -248378)
(6327.08 195.149 19305.5 31724.9 -637.434 -257140)
(515.343 -3594.86 33527.7 29479.5 6187.89 -241329)
(-4481.64 -5371.44 21682.8 26341.7 -3744.78 -219885)
(-2993.14 -3120.12 -833.621 25495 -23276 -216550)
(4420.45 3426.11 -3673.17 30497.5 -26090.8 -229600)
(14813.1 10189.7 24211.7 46561.7 23391.4 -237896)
(56767.6 -2081.93 40413.3 83321.2 153552 -280695)
(59085.5 2443.71 -46258.2 995.862 173151 -183122)
(25581.9 -276.789 1303.84 19644.5 149542 -278473)
(10401.9 -5453.04 57229.3 39580.7 108393 -312453)
(-2916.01 -7297.39 60707.1 46215.9 48777.4 -287351)
(-8500.25 -3552.95 32532.1 45727.5 -2313.43 -257077)
(-6584.91 1855.74 2000.75 44132.2 -22574.3 -245037)
(-751.895 4143.82 -11057 41784.8 -13715.4 -246272)
(4667.27 2081.3 -1244.31 37634.7 9560.14 -244579)
(6272.85 -2755.08 22203.2 31681.6 30747 -225781)
(3319.24 -7398.51 41888.8 24818.3 38002.2 -186584)
(-1803.73 -9171.95 44066 18694.8 29569.1 -138334)
(-5527.04 -7598.08 28438.4 14862.7 12707.9 -99983.7)
(-5929.66 -4140.81 5966.89 12994.5 -3461.1 -80434)
(-3409.57 -524.922 -11245.6 11851.2 -11821.7 -78554.9)
(262.406 1914.16 -15917.7 10898.7 -9184.85 -88274.6)
(2827.52 2501.72 -8297.72 10411.8 891.715 -100822)
(2624.15 1743.4 3831.17 11027.9 10334.4 -108849)
(-207.563 1083.19 9377.42 13090.9 12016.7 -111289)
(-3553.5 1817.24 1767.69 16272.4 4243.15 -114956)
(-4585.61 4147.57 -15720.8 20074.2 -8484.23 -128298)
(-1873.18 6680.95 -30233.1 24592.9 -16886.3 -157609)
(3019.37 7125.63 -28285.6 29194.5 -13951.9 -195557)
(6381.23 4295.37 -7939.72 32024 -59.26 -226171)
(5219.11 -798.558 17741.3 31814.7 16228.8 -236017)
(113.898 -5356.91 29120.2 28956.1 22216.3 -224899)
(-4107.72 -6400.27 16956.5 25731.3 11031.3 -208815)
(-2408.82 -2417.86 -4123.36 25626.2 -8791 -207065)
(3964.1 5687.98 -6256.88 31839.6 -8940.43 -213705)
(9541.95 12903.8 17808.5 48600.7 50187.5 -204054)
(33399.8 -3268.86 26117.3 84118.4 205693 -201634)
(53713.4 5673.12 -40760.5 -3315.26 166824 -160577)
(23832.5 3400.24 6243.19 16589.3 157714 -251750)
(9512.68 -4105.62 57980.4 37527.6 130226 -281561)
(-2900.44 -7340.19 60252.7 45230.1 75249.3 -257258)
(-8016.7 -3643.38 34030 45692.3 24159.1 -228436)
(-6532.64 1940.38 5496.03 44672 2956.33 -214576)
(-1594.04 3739.65 -8521.59 42457.8 10033.1 -212719)
(3226.37 556.624 -2688.71 38122.3 30410.9 -210194)
(4957.13 -5454.95 15747.1 31852.7 48045.5 -194922)
(2815.03 -10634.1 32031 24551.8 51633.3 -163301)
(-1305.99 -11925.5 34175.8 18029.6 40133.1 -123865)
(-4431.6 -9186.39 21403.9 14116.9 21486.5 -92102.7)
(-4833.57 -4618.82 2703.23 12649.8 4417.5 -75738.2)
(-2699.2 -401.028 -11474.3 12143 -4750.76 -74347.5)
(512.439 2142.02 -14564.1 11605.8 -3013.17 -82909.2)
(2820.09 2619.05 -6690.41 11048.6 6433.57 -94023.3)
(2729.21 1877.81 5301.38 11129.6 16085.4 -101234)
(306.724 1594.39 11574.6 12462.7 19098.4 -103178)
(-2660.9 3094.15 6193.57 15153.2 13439.7 -105292)
(-3773.97 6360.11 -8203.6 18962.9 2977.92 -114607)
(-1824.78 9426.06 -20774.8 23904 -3105.04 -136878)
(1946.21 9318.78 -20221.6 29032.5 1981.89 -167063)
(4591.2 4838.22 -4778.73 32018.9 17099.6 -193259)
(3705.85 -2062.37 14945.6 31450.2 33291.7 -204862)
(-253.706 -7316.01 22775 27989.9 38058.6 -200823)
(-3297.22 -7325.95 11230.9 24628.3 25538.6 -192276)