/*--------------------------------*- C++ -*----------------------------------*\
| =========                 |                                                 |
| \\      /  F ield         | OpenFOAM: The Open Source CFD Toolbox           |
|  \\    /   O peration     | Version:  2106                                  |
|   \\  /    A nd           | Website:  www.openfoam.com                      |
|    \\/     M anipulation  |                                                 |
\*---------------------------------------------------------------------------*/
FoamFile
{
    version     2.0;
    format      ascii;
    arch        "LSB;label=32;scalar=64";
    class       volSymmTensorField;
    location    "1566";
    object      sigma;
}
// * * * * * * * * * * * * * * * * * * * * * * * * * * * * * * * * * * * * * //

dimensions      [1 -1 -2 0 0 0 0];

internalField   nonuniform List<symmTensor> 
9000
(
(5.30227e+14 -7.45223e+12 8.95123e+13 2.7694e+14 1.60234e+14 3.25747e+15)
(7.59264e+14 5.8293e+11 -2.69146e+14 2.48192e+14 1.45689e+14 2.57187e+15)
(5.46934e+14 -1.79358e+11 -3.92874e+14 1.53895e+14 8.80743e+13 1.60167e+15)
(2.92964e+14 -1.00615e+11 -3.24652e+14 6.4913e+13 2.68469e+13 7.04438e+14)
(1.3193e+14 1.18342e+11 -1.54116e+14 1.34407e+13 -1.00126e+13 1.88803e+14)
(1.04939e+14 1.86875e+11 1.65126e+13 1.01474e+13 -1.44702e+13 1.60846e+14)
(1.76331e+14 2.07736e+11 1.00444e+14 4.1349e+13 4.52672e+12 4.76908e+14)
(2.625e+14 2.02065e+11 6.78373e+13 7.63001e+13 2.82178e+13 8.21937e+14)
(2.79878e+14 3.0524e+11 -2.94771e+13 8.51936e+13 3.82263e+13 8.98314e+14)
(2.20306e+14 5.28444e+11 -1.11264e+14 6.53109e+13 2.98617e+13 6.87416e+14)
(1.18932e+14 6.04978e+11 -1.34188e+14 3.03187e+13 9.65385e+12 3.33142e+14)
(2.80675e+13 4.88799e+11 -9.74445e+13 -5.10471e+11 -1.00674e+13 2.34834e+13)
(-1.49125e+13 2.69295e+11 -2.86667e+13 -1.43483e+13 -1.95397e+13 -1.15827e+14)
(-1.02213e+12 3.72478e+10 3.81588e+13 -8.68368e+12 -1.63686e+13 -5.91601e+13)
(5.39808e+13 -1.24946e+11 7.60601e+13 1.06717e+13 -4.901e+12 1.37939e+14)
(1.18701e+14 -1.37516e+11 7.07636e+13 3.29503e+13 6.99986e+12 3.69157e+14)
(1.59033e+14 -3.31584e+10 2.54876e+13 4.62479e+13 1.24494e+13 5.13075e+14)
(1.53313e+14 -6.10786e+10 -3.14467e+13 4.25878e+13 8.9353e+12 4.80192e+14)
(1.0723e+14 -2.41923e+11 -4.69274e+13 2.38958e+13 -9.18659e+11 2.87931e+14)
(7.67469e+13 -4.20927e+11 6.70517e+12 1.01376e+13 -7.50907e+12 1.45965e+14)
(1.07071e+14 -5.31495e+11 9.1427e+13 1.8755e+13 -2.6233e+12 2.36393e+14)
(1.95031e+14 -4.62994e+11 1.3803e+14 4.94392e+13 1.39068e+13 5.52118e+14)
(2.89734e+14 -2.79186e+11 1.04378e+14 8.32412e+13 3.25459e+13 8.96212e+14)
(3.27016e+14 2.05374e+10 1.57746e+13 9.64092e+13 4.05129e+13 1.03028e+15)
(2.97922e+14 2.29408e+11 -6.78857e+13 8.49903e+13 3.47531e+13 9.13888e+14)
(2.21217e+14 1.99004e+11 -9.50741e+13 5.70875e+13 1.99933e+13 6.29896e+14)
(1.5542e+14 1.13915e+11 -5.84911e+13 3.48942e+13 7.46058e+12 4.01604e+14)
(1.28196e+14 -4.09394e+10 -1.12017e+13 2.89451e+13 2.7829e+12 3.41904e+14)
(1.15392e+14 -3.55922e+11 -6.437e+12 3.11599e+13 1.18027e+12 3.65498e+14)
(5.50991e+13 1.13082e+12 -2.7738e+13 2.42816e+13 -1.09758e+13 3.4393e+14)
(4.57846e+14 -1.01727e+13 9.06709e+13 4.13984e+14 1.60016e+14 2.67655e+15)
(6.56273e+14 1.27367e+13 -2.2613e+14 3.68286e+14 1.56249e+14 2.09041e+15)
(4.78309e+14 1.55647e+13 -3.32895e+14 2.29152e+14 8.15661e+13 1.30793e+15)
(2.64288e+14 1.24621e+13 -2.76111e+14 1.02408e+14 -1.49682e+12 5.97498e+14)
(1.29112e+14 5.52026e+12 -1.33808e+14 3.04435e+13 -5.16167e+13 1.91888e+14)
(1.06562e+14 -1.59569e+12 8.78061e+12 2.65929e+13 -5.84088e+13 1.70945e+14)
(1.65555e+14 -4.79241e+12 7.90022e+13 7.05117e+13 -3.32221e+13 4.18323e+14)
(2.34753e+14 -2.66081e+12 5.20075e+13 1.17569e+14 1.00002e+12 6.82386e+14)
(2.42921e+14 2.42355e+12 -2.79375e+13 1.24678e+14 2.16842e+13 7.26585e+14)
(1.89161e+14 6.59352e+12 -9.3896e+13 9.35335e+13 1.75975e+13 5.5119e+14)
(1.04727e+14 7.53225e+12 -1.11528e+14 4.52065e+13 -5.60437e+12 2.74358e+14)
(3.09866e+13 5.32408e+12 -8.1126e+13 4.49513e+12 -3.08185e+13 3.71489e+13)
(-3.26979e+12 1.52588e+12 -2.48474e+13 -1.31355e+13 -4.33626e+13 -6.8354e+13)
(8.9557e+12 -2.11046e+12 3.04526e+13 -4.70534e+12 -3.95097e+13 -2.32162e+13)
(5.57658e+13 -4.20558e+12 6.30234e+13 2.29722e+13 -2.60876e+13 1.32729e+14)
(1.12422e+14 -3.90236e+12 6.04e+13 5.64652e+13 -1.45145e+13 3.20392e+14)
(1.50394e+14 -1.33148e+12 2.36632e+13 7.90587e+13 -1.26876e+13 4.44408e+14)
(1.48377e+14 1.65918e+12 -2.44377e+13 7.63e+13 -1.98325e+13 4.25685e+14)
(1.07625e+14 2.19282e+12 -3.82433e+13 4.75185e+13 -3.01167e+13 2.6914e+14)
(7.93807e+13 -8.47602e+11 6.71359e+12 2.49487e+13 -3.64579e+13 1.5055e+14)
(1.04483e+14 -5.20494e+12 7.81873e+13 3.63097e+13 -3.19771e+13 2.21123e+14)
(1.79748e+14 -7.19456e+12 1.17497e+14 8.08537e+13 -1.51851e+13 4.73821e+14)
(2.60759e+14 -5.01673e+12 8.92575e+13 1.30065e+14 4.93403e+12 7.48846e+14)
(2.91743e+14 -1.44866e+11 1.48994e+13 1.48504e+14 1.47129e+13 8.54132e+14)
(2.67671e+14 4.13079e+12 -5.5821e+13 1.3264e+14 8.57001e+12 7.63257e+14)
(2.01405e+14 5.17056e+12 -7.96024e+13 9.13714e+13 -6.65523e+12 5.34848e+14)
(1.44034e+14 3.0784e+12 -4.91909e+13 5.80184e+13 -1.98052e+13 3.49266e+14)
(1.20479e+14 5.80155e+11 -8.77905e+12 4.91846e+13 -2.56344e+13 3.00216e+14)
(1.08918e+14 -2.68353e+11 -3.13202e+12 5.24769e+13 -2.91308e+13 3.17751e+14)
(5.15212e+13 2.92216e+12 -2.19057e+13 3.9516e+13 -5.30053e+13 2.98714e+14)
(4.01216e+14 -1.24076e+13 8.50917e+13 4.93171e+14 8.20688e+13 2.22069e+15)
(5.77859e+14 1.8551e+13 -1.88015e+14 4.38043e+14 9.29464e+13 1.72819e+15)
(4.19696e+14 2.38563e+13 -2.80754e+14 2.70534e+14 3.11847e+13 1.07948e+15)
(2.29621e+14 1.92464e+13 -2.34e+14 1.16912e+14 -3.89188e+13 4.93979e+14)
(1.09937e+14 8.60971e+12 -1.15864e+14 2.96394e+13 -8.08113e+13 1.60475e+14)
(8.97506e+13 -2.19789e+12 2.57816e+12 2.41908e+13 -8.64478e+13 1.41424e+14)
(1.41117e+14 -6.91795e+12 6.1198e+13 7.61054e+13 -6.45313e+13 3.4026e+14)
(2.00957e+14 -3.45334e+12 3.94813e+13 1.32063e+14 -3.25806e+13 5.50834e+14)
(2.06418e+14 4.2156e+12 -2.51634e+13 1.4082e+14 -7.95833e+12 5.79966e+14)
(1.59092e+14 1.01188e+13 -7.75045e+13 1.04769e+14 -5.08598e+12 4.35645e+14)
(8.66872e+13 1.12385e+13 -9.08406e+13 4.87648e+13 -2.16794e+13 2.15103e+14)
(2.42066e+13 7.88999e+12 -6.61913e+13 1.63382e+12 -4.2144e+13 2.84065e+13)
(-4.34097e+12 2.26865e+12 -2.10085e+13 -1.86518e+13 -5.25692e+13 -5.38156e+13)
(6.87527e+12 -3.17912e+12 2.38768e+13 -8.49096e+12 -4.94796e+13 -1.69414e+13)
(4.78459e+13 -6.45575e+12 5.12666e+13 2.42057e+13 -3.96891e+13 1.08608e+14)
(9.76357e+13 -6.20315e+12 5.05917e+13 6.37796e+13 -3.36612e+13 2.61452e+14)
(1.31806e+14 -2.39448e+12 2.146e+13 9.06817e+13 -3.71048e+13 3.65907e+14)
(1.31126e+14 2.38117e+12 -1.84982e+13 8.76599e+13 -4.58019e+13 3.55205e+14)
(9.4988e+13 3.4209e+12 -3.08391e+13 5.33647e+13 -5.24595e+13 2.2767e+14)
(6.909e+13 -1.26221e+12 5.96596e+12 2.59058e+13 -5.61991e+13 1.28765e+14)
(8.9969e+13 -7.99203e+12 6.53367e+13 3.83716e+13 -5.44919e+13 1.83917e+14)
(1.55155e+14 -1.1027e+13 9.83621e+13 9.02738e+13 -4.47779e+13 3.88046e+14)
(2.25728e+14 -7.62947e+12 7.53961e+13 1.48081e+14 -3.16496e+13 6.11e+14)
(2.52395e+14 -2.45593e+11 1.41517e+13 1.69942e+14 -2.39769e+13 6.95658e+14)
(2.31911e+14 6.26407e+12 -4.4752e+13 1.51732e+14 -2.82534e+13 6.23897e+14)
(1.73812e+14 8.00001e+12 -6.54e+13 1.03201e+14 -3.75371e+13 4.37975e+14)
(1.23145e+14 4.84389e+12 -4.06181e+13 6.34226e+13 -4.53433e+13 2.85086e+14)
(1.02003e+14 1.10313e+12 -6.6484e+12 5.21169e+13 -4.93409e+13 2.42481e+14)
(9.13218e+13 1.30538e+11 -7.31521e+11 5.47226e+13 -5.23048e+13 2.52065e+14)
(3.97024e+13 4.4695e+12 -1.54652e+13 3.63644e+13 -7.81042e+13 2.23307e+14)
(3.3657e+14 -1.4001e+13 7.52854e+13 4.862e+14 2.72118e+12 1.79825e+15)
(4.82653e+14 2.07744e+13 -1.52622e+14 4.25417e+14 2.45664e+13 1.39022e+15)
(3.47577e+14 2.81458e+13 -2.31151e+14 2.59523e+14 -2.06781e+13 8.60511e+14)
(1.85289e+14 2.30428e+13 -1.93735e+14 1.07412e+14 -7.20586e+13 3.83824e+14)
(8.33033e+13 1.05241e+13 -9.83207e+13 2.1158e+13 -1.01921e+14 1.12863e+14)
(6.55981e+13 -2.17341e+12 -2.63891e+12 1.50975e+13 -1.05412e+14 9.51762e+13)
(1.08354e+14 -7.60374e+12 4.51896e+13 6.51736e+13 -8.79911e+13 2.52383e+14)
(1.58234e+14 -3.34186e+12 2.87322e+13 1.19278e+14 -6.06563e+13 4.18638e+14)
(1.62352e+14 5.60608e+12 -2.14223e+13 1.27672e+14 -3.45314e+13 4.39326e+14)
(1.23327e+14 1.21496e+13 -6.12071e+13 9.36192e+13 -2.54992e+13 3.25124e+14)
(6.44123e+13 1.31742e+13 -7.07702e+13 4.12204e+13 -3.43974e+13 1.53951e+14)
(1.41505e+13 9.21402e+12 -5.16454e+13 -2.56296e+12 -4.85034e+13 1.07714e+13)
(-8.28179e+12 2.71124e+12 -1.69934e+13 -2.11201e+13 -5.5933e+13 -5.12791e+13)
(1.68717e+12 -3.64792e+12 1.7841e+13 -1.09948e+13 -5.37168e+13 -2.14457e+13)
(3.57956e+13 -7.60288e+12 3.99464e+13 2.05068e+13 -4.79127e+13 7.68751e+13)
(7.70737e+13 -7.51761e+12 4.07699e+13 5.88023e+13 -4.70857e+13 1.97002e+14)
(1.05756e+14 -3.18877e+12 1.88311e+13 8.53246e+13 -5.46824e+13 2.81044e+14)
(1.05842e+14 2.53307e+12 -1.31234e+13 8.2887e+13 -6.42659e+13 2.75673e+14)
(7.56386e+13 3.88621e+12 -2.4027e+13 4.92046e+13 -6.79064e+13 1.7538e+14)
(5.31622e+13 -1.68131e+12 4.67414e+12 2.13362e+13 -6.97777e+13 9.51337e+13)
(6.92971e+13 -9.64466e+12 5.2265e+13 3.19319e+13 -7.10854e+13 1.35973e+14)
(1.22616e+14 -1.3154e+13 7.9434e+13 8.10561e+13 -6.86101e+13 2.9579e+14)
(1.80866e+14 -9.011e+12 6.18603e+13 1.36424e+14 -6.28165e+13 4.71751e+14)
(2.0271e+14 -2.93557e+11 1.34176e+13 1.57574e+14 -5.76347e+13 5.38424e+14)
(1.86089e+14 7.38993e+12 -3.39893e+13 1.40659e+14 -5.98821e+13 4.83095e+14)
(1.37757e+14 9.55763e+12 -5.1468e+13 9.40192e+13 -6.31123e+13 3.35661e+14)
(9.53057e+13 5.87093e+12 -3.2111e+13 5.50859e+13 -6.54874e+13 2.13042e+14)
(7.69772e+13 1.5773e+12 -4.41303e+12 4.30959e+13 -6.72136e+13 1.76183e+14)
(6.7499e+13 7.99394e+11 1.95337e+12 4.41751e+13 -6.86961e+13 1.77935e+14)
(2.47052e+13 5.59549e+12 -8.05931e+12 2.34062e+13 -9.29634e+13 1.37521e+14)
(2.70157e+14 -1.48184e+13 6.30242e+13 4.36929e+14 -4.68225e+13 1.4049e+15)
(3.82356e+14 2.03784e+13 -1.20327e+14 3.73577e+14 -2.05822e+13 1.07304e+15)
(2.70273e+14 2.91329e+13 -1.83966e+14 2.22766e+14 -5.62397e+13 6.50133e+14)
(1.36488e+14 2.43437e+13 -1.55016e+14 8.53319e+13 -9.50535e+13 2.71459e+14)
(5.27734e+13 1.14244e+13 -8.10304e+13 7.67263e+12 -1.16493e+14 5.71482e+13)
(3.78439e+13 -1.72435e+12 -6.86531e+12 1.54116e+12 -1.181e+14 4.13983e+13)
(7.22684e+13 -7.25031e+12 3.08445e+13 4.5421e+13 -1.03275e+14 1.62637e+14)
(1.12653e+14 -2.67149e+12 1.9504e+13 9.30297e+13 -7.87657e+13 2.91223e+14)
(1.16341e+14 6.54803e+12 -1.70181e+13 1.00537e+14 -5.17848e+13 3.07293e+14)
(8.61504e+13 1.29932e+13 -4.52645e+13 7.18568e+13 -3.86677e+13 2.21462e+14)
(4.0757e+13 1.37722e+13 -5.15051e+13 2.81728e+13 -4.21559e+13 9.41767e+13)
(2.58458e+12 9.59422e+12 -3.76304e+13 -7.94331e+12 -5.17908e+13 -1.06508e+13)
(-1.37841e+13 2.91261e+12 -1.28923e+13 -2.28378e+13 -5.7136e+13 -5.47099e+13)
(-5.04471e+12 -3.64379e+12 1.23616e+13 -1.3542e+13 -5.54168e+13 -3.08207e+13)
(2.21103e+13 -7.82444e+12 2.92308e+13 1.39271e+13 -5.19096e+13 4.31532e+13)
(5.45591e+13 -7.93414e+12 3.1189e+13 4.74664e+13 -5.38164e+13 1.33192e+14)
(7.72067e+13 -3.65286e+12 1.59243e+13 7.12274e+13 -6.34604e+13 1.97363e+14)
(7.75742e+13 2.24438e+12 -8.36627e+12 6.95948e+13 -7.37776e+13 1.95407e+14)
(5.33961e+13 3.68151e+12 -1.79001e+13 3.93885e+13 -7.66482e+13 1.19693e+14)
(3.44592e+13 -2.13041e+12 2.92069e+12 1.32538e+13 -7.84098e+13 5.62244e+13)
(4.57431e+13 -1.03764e+13 3.92405e+13 2.05857e+13 -8.21002e+13 8.36631e+13)
(8.69682e+13 -1.38963e+13 6.0995e+13 6.21997e+13 -8.42678e+13 2.03208e+14)
(1.32668e+14 -9.40103e+12 4.88176e+13 1.10034e+14 -8.30038e+13 3.36785e+14)
(1.49714e+14 -2.66915e+11 1.27088e+13 1.28595e+14 -7.93028e+13 3.87608e+14)
(1.3677e+14 7.74064e+12 -2.36537e+13 1.1461e+14 -8.00895e+13 3.46423e+14)
(9.84084e+13 1.00499e+13 -3.79919e+13 7.41064e+13 -7.95591e+13 2.33736e+14)
(6.44974e+13 6.22526e+12 -2.38003e+13 3.9422e+13 -7.87348e+13 1.38916e+14)
(4.9186e+13 1.92862e+12 -2.01343e+12 2.75743e+13 -7.88971e+13 1.07401e+14)
(4.13542e+13 1.50632e+12 5.24842e+12 2.69037e+13 -7.87566e+13 1.02235e+14)
(8.8839e+12 6.24317e+12 4.0709e+10 5.5067e+12 -1.0086e+14 5.07322e+13)
(2.06967e+14 -1.49453e+13 4.96252e+13 3.69371e+14 -6.6503e+13 1.04878e+15)
(2.85328e+14 1.81247e+13 -9.19447e+13 3.04985e+14 -4.19185e+13 7.83493e+14)
(1.9396e+14 2.75342e+13 -1.40435e+14 1.74352e+14 -7.49792e+13 4.53667e+14)
(8.70146e+13 2.3614e+13 -1.18758e+14 5.70155e+13 -1.08048e+14 1.61771e+14)
(2.07602e+13 1.14452e+13 -6.43943e+13 -8.87855e+12 -1.25269e+14 -1.83862e+12)
(8.81625e+12 -1.04086e+12 -1.00114e+13 -1.47339e+13 -1.25642e+14 -1.49094e+13)
(3.58899e+13 -6.19401e+12 1.84331e+13 2.13828e+13 -1.1169e+14 7.59471e+13)
(6.79159e+13 -1.67504e+12 1.18498e+13 6.09078e+13 -8.81606e+13 1.73e+14)
(7.18349e+13 7.08208e+12 -1.22474e+13 6.76288e+13 -6.06678e+13 1.86916e+14)
(5.02513e+13 1.29427e+13 -3.01723e+13 4.57935e+13 -4.52451e+13 1.26992e+14)
(1.75574e+13 1.33908e+13 -3.35694e+13 1.27625e+13 -4.55278e+13 3.83047e+13)
(-9.37422e+12 9.26994e+12 -2.4546e+13 -1.41293e+13 -5.26535e+13 -3.3067e+13)
(-2.00724e+13 2.91339e+12 -8.85708e+12 -2.46681e+13 -5.69262e+13 -6.12556e+13)
(-1.23982e+13 -3.29849e+12 7.58878e+12 -1.65025e+13 -5.53971e+13 -4.22008e+13)
(8.33384e+12 -7.33198e+12 1.95126e+13 5.83655e+12 -5.26019e+13 1.07273e+13)
(3.25051e+13 -7.61911e+12 2.22875e+13 3.31936e+13 -5.50115e+13 7.43042e+13)
(4.92967e+13 -3.79797e+12 1.29456e+13 5.30955e+13 -6.48732e+13 1.20378e+14)
(4.95426e+13 1.65718e+12 -4.38995e+12 5.22138e+13 -7.57544e+13 1.20324e+14)
(3.07118e+13 2.97226e+12 -1.27245e+13 2.66165e+13 -7.97081e+13 6.54169e+13)
(1.48706e+13 -2.5906e+12 7.55994e+11 3.10793e+12 -8.27766e+13 1.59949e+13)
(2.14644e+13 -1.03949e+13 2.67206e+13 6.6144e+12 -8.82216e+13 3.10418e+13)
(5.1305e+13 -1.35782e+13 4.36587e+13 3.88167e+13 -9.26766e+13 1.14874e+14)
(8.52423e+13 -9.03457e+12 3.6687e+13 7.71113e+13 -9.33525e+13 2.11168e+14)
(9.78447e+13 -1.57251e+11 1.20818e+13 9.23615e+13 -9.01323e+13 2.48269e+14)
(8.82059e+13 7.53043e+12 -1.40335e+13 8.19066e+13 -8.9878e+13 2.19215e+14)
(5.91934e+13 9.70505e+12 -2.54396e+13 4.92162e+13 -8.7661e+13 1.37154e+14)
(3.33528e+13 6.0037e+12 -1.6031e+13 2.01518e+13 -8.57794e+13 6.69294e+13)
(2.09991e+13 2.09873e+12 4.5479e+11 8.80167e+12 -8.52576e+13 4.01084e+13)
(1.51353e+13 2.08377e+12 9.07301e+12 6.53067e+12 -8.36901e+13 2.90734e+13)
(-6.64965e+12 6.45972e+12 8.40074e+12 -1.43886e+13 -1.03532e+14 -3.26809e+13)
(1.49947e+14 -1.45712e+13 3.60524e+13 2.9623e+14 -6.39588e+13 7.37022e+14)
(1.96489e+14 1.47077e+13 -6.79971e+13 2.31621e+14 -4.55895e+13 5.2751e+14)
(1.22521e+14 2.41708e+13 -1.0166e+14 1.22011e+14 -8.07193e+13 2.75794e+14)
(3.94369e+13 2.1416e+13 -8.58746e+13 2.61892e+13 -1.12815e+14 5.85356e+13)
(-1.09979e+13 1.07698e+13 -4.88562e+13 -2.70287e+13 -1.28927e+14 -6.0833e+13)
(-1.98997e+13 -2.92503e+11 -1.20653e+13 -3.23464e+13 -1.28791e+14 -7.06598e+13)
(1.05366e+12 -4.75125e+12 8.15033e+12 -4.12491e+12 -1.14805e+14 -4.7815e+12)
(2.6116e+13 -5.42998e+11 5.79749e+12 2.72529e+13 -9.12147e+13 6.65198e+13)
(3.07235e+13 7.28452e+12 -7.35933e+12 3.35054e+13 -6.35556e+13 7.99112e+13)
(1.71356e+13 1.22798e+13 -1.63269e+13 1.89285e+13 -4.70348e+13 4.30915e+13)
(-4.07421e+12 1.23567e+13 -1.73854e+13 -3.16178e+12 -4.55694e+13 -1.20979e+13)
(-2.0959e+13 8.4631e+12 -1.2728e+13 -2.0687e+13 -5.14948e+13 -5.47624e+13)
(-2.65636e+13 2.75081e+12 -5.0323e+12 -2.68165e+13 -5.54165e+13 -6.92375e+13)
(-1.97322e+13 -2.7534e+12 3.62426e+12 -1.98322e+13 -5.39455e+13 -5.39535e+13)
(-4.57383e+12 -6.36955e+12 1.10973e+13 -2.8059e+12 -5.08701e+13 -1.85228e+13)
(1.23357e+13 -6.79134e+12 1.44199e+13 1.80613e+13 -5.23312e+13 2.28179e+13)
(2.38585e+13 -3.67807e+12 1.0083e+13 3.37547e+13 -6.11587e+13 5.33136e+13)
(2.36746e+13 9.25195e+11 -1.29384e+12 3.34629e+13 -7.23255e+13 5.39836e+13)
(9.15076e+12 1.97132e+12 -8.68423e+12 1.26632e+13 -7.83646e+13 1.5546e+13)
(-4.29463e+12 -3.01696e+12 -1.753e+12 -8.01472e+12 -8.35265e+13 -2.29653e+13)
(-2.08548e+12 -9.90684e+12 1.5091e+13 -8.44222e+12 -9.02837e+13 -1.92256e+13)
(1.75306e+13 -1.25333e+13 2.79338e+13 1.39639e+13 -9.55095e+13 3.3699e+13)
(4.09874e+13 -8.15179e+12 2.58176e+13 4.23446e+13 -9.64391e+13 9.8046e+13)
(4.96573e+13 2.64979e+10 1.15979e+13 5.41682e+13 -9.30019e+13 1.23549e+14)
(4.29215e+13 6.95685e+12 -5.35225e+12 4.73032e+13 -9.18879e+13 1.04928e+14)
(2.22407e+13 8.77377e+12 -1.42094e+13 2.27315e+13 -8.93362e+13 4.92122e+13)
(3.56716e+12 5.34169e+12 -9.12528e+12 -4.35952e+11 -8.78962e+13 -1.10581e+11)
(-6.09541e+12 2.06961e+12 2.82859e+12 -1.11604e+13 -8.74314e+13 -2.31738e+13)
(-9.85067e+12 2.46351e+12 1.31745e+13 -1.46619e+13 -8.46989e+13 -3.91709e+13)
(-2.1311e+13 6.32828e+12 1.6598e+13 -3.43167e+13 -1.01975e+14 -1.10543e+14)
(1.00601e+14 -1.38779e+13 2.29687e+13 2.2452e+14 -4.67466e+13 4.73216e+14)
(1.18312e+14 1.07179e+13 -4.86217e+13 1.60087e+14 -3.75755e+13 3.07899e+14)
(5.81496e+13 1.98067e+13 -6.82733e+13 7.02192e+13 -7.72875e+13 1.19203e+14)
(-4.59037e+12 1.82958e+13 -5.6977e+13 -4.7904e+12 -1.11201e+14 -3.57164e+13)
(-4.12322e+13 9.59446e+12 -3.47649e+13 -4.56263e+13 -1.28197e+14 -1.1748e+14)
(-4.71864e+13 3.96986e+11 -1.3106e+13 -5.01982e+13 -1.28241e+14 -1.23782e+14)
(-3.11331e+13 -3.17663e+12 2.90282e+10 -2.9271e+13 -1.13947e+14 -7.79346e+13)
(-1.16449e+13 5.82752e+11 1.29285e+12 -5.35619e+12 -8.99083e+13 -2.71359e+13)
(-6.0607e+12 7.23189e+12 -2.5454e+12 7.76977e+11 -6.24049e+13 -1.32029e+13)
(-1.2434e+13 1.12305e+13 -3.97411e+12 -6.73336e+12 -4.55508e+13 -2.97773e+13)
(-2.35054e+13 1.09289e+13 -3.20362e+12 -1.84635e+13 -4.32241e+13 -5.62319e+13)
(-3.16476e+13 7.35572e+12 -2.39005e+12 -2.72126e+13 -4.87198e+13 -7.46539e+13)
(-3.28094e+13 2.45765e+12 -1.539e+12 -2.92179e+13 -5.27472e+13 -7.75344e+13)
(-2.65965e+13 -2.13369e+12 4.85685e+11 -2.33436e+13 -5.1342e+13 -6.50767e+13)
(-1.60555e+13 -5.16354e+12 4.13438e+12 -1.13247e+13 -4.75232e+13 -4.36591e+13)
(-5.21126e+12 -5.66503e+12 7.7918e+12 3.37022e+12 -4.72888e+13 -2.02237e+13)
(1.81872e+12 -3.36072e+12 7.47969e+12 1.49558e+13 -5.43578e+13 -2.49795e+12)
(1.0003e+12 1.85477e+11 9.22016e+11 1.50666e+13 -6.54649e+13 -1.96471e+12)
(-1.03345e+13 8.83357e+11 -5.81993e+12 -1.26589e+12 -7.38474e+13 -2.82264e+13)
(-2.2136e+13 -3.35813e+12 -4.50692e+12 -1.92862e+13 -8.13446e+13 -5.89301e+13)
(-2.3935e+13 -9.08488e+12 4.61853e+12 -2.3495e+13 -8.9116e+13 -6.5394e+13)
(-1.32256e+13 -1.10467e+13 1.41403e+13 -1.04387e+13 -9.42735e+13 -3.86787e+13)
(1.2008e+12 -6.95927e+12 1.64258e+13 8.52743e+12 -9.45152e+13 -1.08234e+12)
(6.50174e+12 2.62746e+11 1.13055e+13 1.71214e+13 -9.0419e+13 1.48564e+13)
(2.29435e+12 6.17232e+12 2.26234e+12 1.36254e+13 -8.85068e+13 5.27187e+12)
(-1.12124e+13 7.47938e+12 -4.55455e+12 -3.26055e+12 -8.64025e+13 -2.82626e+13)
(-2.38071e+13 4.38118e+12 -3.31822e+12 -2.08523e+13 -8.63197e+13 -6.04995e+13)
(-3.11706e+13 1.86061e+12 4.92278e+12 -3.09304e+13 -8.64423e+13 -8.09032e+13)
(-3.28381e+13 2.65304e+12 1.7241e+13 -3.51718e+13 -8.27087e+13 -1.01149e+14)
(-3.4736e+13 5.93341e+12 2.42632e+13 -5.28875e+13 -9.67196e+13 -1.81568e+14)
(5.95118e+13 -1.29887e+13 1.08031e+13 1.58267e+14 -2.10353e+13 2.57732e+14)
(5.1757e+13 6.63352e+12 -3.36345e+13 9.41134e+13 -2.25711e+13 1.24837e+14)
(1.94296e+12 1.50688e+13 -4.04419e+13 2.17128e+13 -6.77482e+13 -1.51203e+13)
(-4.40411e+13 1.47176e+13 -3.23446e+13 -3.43172e+13 -1.04797e+14 -1.19443e+14)
(-6.90254e+13 8.10159e+12 -2.23453e+13 -6.37326e+13 -1.2382e+14 -1.70047e+14)
(-7.22487e+13 9.54425e+11 -1.32752e+13 -6.74009e+13 -1.24634e+14 -1.72828e+14)
(-6.00004e+13 -1.64981e+12 -6.03489e+12 -5.28127e+13 -1.10126e+14 -1.42668e+14)
(-4.48264e+13 1.60614e+12 -1.78815e+12 -3.53361e+13 -8.56486e+13 -1.07773e+14)
(-3.81079e+13 6.9852e+12 2.05146e+12 -2.90249e+13 -5.85646e+13 -9.26064e+13)
(-3.81129e+13 9.95426e+12 6.76118e+12 -3.00159e+13 -4.18592e+13 -9.1703e+13)
(-4.04068e+13 9.29137e+12 8.86828e+12 -3.24232e+13 -3.92243e+13 -9.38146e+13)
(-4.11065e+13 6.0829e+12 6.36222e+12 -3.33648e+13 -4.47266e+13 -9.20981e+13)
(-3.8491e+13 2.06178e+12 1.52698e+12 -3.17141e+13 -4.91377e+13 -8.5399e+13)
(-3.2701e+13 -1.53533e+12 -1.8827e+12 -2.68255e+13 -4.78956e+13 -7.49845e+13)
(-2.5841e+13 -3.8959e+12 -1.36972e+12 -1.92536e+13 -4.3246e+13 -6.43923e+13)
(-1.98586e+13 -4.41888e+12 2.46804e+12 -1.0068e+13 -4.10844e+13 -5.47929e+13)
(-1.64959e+13 -2.91064e+12 5.23058e+12 -2.21933e+12 -4.60726e+13 -4.70736e+13)
(-1.80549e+13 -4.57378e+11 2.34557e+12 -1.88033e+12 -5.67593e+13 -4.72416e+13)
(-2.72225e+13 -1.26249e+11 -4.03973e+12 -1.43449e+13 -6.72241e+13 -6.51406e+13)
(-3.80611e+13 -3.56821e+12 -7.37442e+12 -3.00695e+13 -7.69093e+13 -9.07957e+13)
(-4.34529e+13 -8.0564e+12 -4.53373e+12 -3.77438e+13 -8.54741e+13 -1.06361e+14)
(-4.03212e+13 -9.33407e+12 2.42958e+12 -3.31331e+13 -9.01593e+13 -1.01467e+14)
(-3.34759e+13 -5.61692e+12 8.60671e+12 -2.26212e+13 -8.92621e+13 -8.57985e+13)
(-3.09832e+13 5.2279e+11 1.12303e+13 -1.69057e+13 -8.42467e+13 -7.75283e+13)
(-3.30068e+13 5.28043e+12 8.75857e+12 -1.73985e+13 -8.15752e+13 -7.9266e+13)
(-4.05121e+13 5.99828e+12 3.4069e+12 -2.74257e+13 -8.03372e+13 -9.45201e+13)
(-4.81522e+13 3.25211e+12 1.25013e+12 -4.00836e+13 -8.20983e+13 -1.1333e+14)
(-5.36562e+13 1.5186e+12 6.56069e+12 -4.95374e+13 -8.31221e+13 -1.32179e+14)
(-5.33641e+13 2.70516e+12 2.09599e+13 -5.39663e+13 -7.83612e+13 -1.56069e+14)
(-4.66381e+13 5.34836e+12 3.10799e+13 -6.9061e+13 -8.79812e+13 -2.44702e+14)
(2.66498e+13 -1.19642e+13 -1.74803e+11 9.9737e+13 8.31649e+12 8.84975e+13)
(-3.14921e+12 2.83097e+12 -2.26104e+13 3.57702e+13 -4.09512e+12 -2.33244e+13)
(-4.57013e+13 1.04306e+13 -1.79644e+13 -2.18008e+13 -5.44213e+13 -1.2738e+14)
(-7.8318e+13 1.10426e+13 -1.19741e+13 -6.12402e+13 -9.49035e+13 -1.91809e+14)
(-9.37224e+13 6.44832e+12 -1.17035e+13 -8.05567e+13 -1.16491e+14 -2.17257e+14)
(-9.4515e+13 1.34963e+12 -1.2744e+13 -8.3217e+13 -1.18531e+14 -2.16747e+14)
(-8.51368e+13 -2.83496e+11 -1.02389e+13 -7.38744e+13 -1.04081e+14 -1.98565e+14)
(-7.31924e+13 2.4662e+12 -3.6195e+12 -6.1699e+13 -7.93809e+13 -1.75643e+14)
(-6.528e+13 6.58507e+12 6.3203e+12 -5.50007e+13 -5.2925e+13 -1.58799e+14)
(-5.97842e+13 8.55288e+12 1.5835e+13 -5.02314e+13 -3.66852e+13 -1.43051e+14)
(-5.46365e+13 7.56383e+12 1.88216e+13 -4.45855e+13 -3.41113e+13 -1.2488e+14)
(-4.91442e+13 4.73775e+12 1.35035e+13 -3.88707e+13 -3.98667e+13 -1.06765e+14)
(-4.34039e+13 1.58676e+12 4.09342e+12 -3.41274e+13 -4.48277e+13 -9.23642e+13)
(-3.78853e+13 -1.02265e+12 -3.58759e+12 -3.00863e+13 -4.38977e+13 -8.33864e+13)
(-3.38589e+13 -2.69638e+12 -5.51544e+12 -2.62853e+13 -3.85681e+13 -8.0858e+13)
(-3.16265e+13 -3.1853e+12 -1.59493e+12 -2.17761e+13 -3.45866e+13 -8.15038e+13)
(-3.11388e+13 -2.38234e+12 3.38932e+12 -1.71457e+13 -3.74489e+13 -8.12758e+13)
(-3.34581e+13 -9.35766e+11 3.12701e+12 -1.67199e+13 -4.73754e+13 -8.24479e+13)
(-4.12933e+13 -9.42423e+11 -3.15419e+12 -2.60206e+13 -5.93592e+13 -9.50811e+13)
(-5.17117e+13 -3.61256e+12 -1.01997e+13 -3.98747e+13 -7.08399e+13 -1.17924e+14)
(-6.02498e+13 -6.90657e+12 -1.22785e+13 -5.05868e+13 -8.0006e+13 -1.41474e+14)
(-6.34177e+13 -7.54456e+12 -7.17264e+12 -5.32745e+13 -8.40666e+13 -1.54397e+14)
(-6.27841e+13 -4.24088e+12 2.35987e+12 -5.00333e+13 -8.1879e+13 -1.56304e+14)
(-6.25724e+13 7.75472e+11 1.13719e+13 -4.67849e+13 -7.58171e+13 -1.53981e+14)
(-6.27461e+13 4.34518e+12 1.41352e+13 -4.4717e+13 -7.24469e+13 -1.48963e+14)
(-6.53829e+13 4.45961e+12 9.66259e+12 -4.89085e+13 -7.22747e+13 -1.49531e+14)
(-6.91428e+13 2.06519e+12 4.52597e+12 -5.74237e+13 -7.60704e+13 -1.58249e+14)
(-7.32072e+13 1.10732e+12 7.5961e+12 -6.6272e+13 -7.81099e+13 -1.76506e+14)
(-7.11258e+13 2.69387e+12 2.40484e+13 -7.02995e+13 -7.20712e+13 -2.03396e+14)
(-5.67371e+13 4.6315e+12 3.67718e+13 -8.20079e+13 -7.5787e+13 -2.98804e+14)
(1.55549e+12 -1.08163e+13 -9.79042e+12 5.00408e+13 3.75871e+13 -3.83432e+13)
(-4.69537e+13 -4.05667e+11 -1.49576e+13 -1.39168e+13 1.53093e+13 -1.39377e+14)
(-8.48248e+13 6.22214e+12 -3.8319e+11 -5.9279e+13 -3.89877e+13 -2.18522e+14)
(-1.0711e+14 7.53084e+12 4.35099e+12 -8.47153e+13 -8.25321e+13 -2.5245e+14)
(-1.14858e+14 4.76225e+12 -2.84238e+12 -9.54179e+13 -1.06812e+14 -2.58155e+14)
(-1.13563e+14 1.58377e+12 -1.1686e+13 -9.70154e+13 -1.10389e+14 -2.54735e+14)
(-1.06277e+14 8.61376e+11 -1.28342e+13 -9.18143e+13 -9.63223e+13 -2.45411e+14)
(-9.66601e+13 3.12587e+12 -4.40925e+12 -8.38243e+13 -7.17106e+13 -2.31166e+14)
(-8.75739e+13 6.05238e+12 1.01645e+13 -7.66324e+13 -4.60614e+13 -2.12384e+14)
(-7.74515e+13 7.0835e+12 2.32491e+13 -6.69909e+13 -3.0515e+13 -1.843e+14)
(-6.6165e+13 5.81727e+12 2.67083e+13 -5.46708e+13 -2.82696e+13 -1.49638e+14)
(-5.56683e+13 3.37986e+12 1.90623e+13 -4.35234e+13 -3.44217e+13 -1.18533e+14)
(-4.74317e+13 1.05282e+12 6.10915e+12 -3.62919e+13 -4.00332e+13 -9.81638e+13)
(-4.20836e+13 -6.30864e+11 -4.76319e+12 -3.29676e+13 -3.95874e+13 -9.01908e+13)
(-4.01649e+13 -1.64512e+12 -8.4699e+12 -3.2233e+13 -3.38594e+13 -9.34393e+13)
(-4.07115e+13 -2.05112e+12 -4.51209e+12 -3.15145e+13 -2.83609e+13 -1.01312e+14)
(-4.23845e+13 -1.81803e+12 1.97856e+12 -2.95237e+13 -2.92235e+13 -1.0641e+14)
(-4.54127e+13 -1.21678e+12 3.45054e+12 -2.91121e+13 -3.80946e+13 -1.0867e+14)
(-5.2529e+13 -1.49906e+12 -2.9159e+12 -3.59449e+13 -5.09062e+13 -1.18345e+14)
(-6.29001e+13 -3.46924e+12 -1.2812e+13 -4.83289e+13 -6.36619e+13 -1.40014e+14)
(-7.41028e+13 -5.68607e+12 -1.85774e+13 -6.15664e+13 -7.32371e+13 -1.70385e+14)
(-8.23635e+13 -5.77212e+12 -1.47246e+13 -7.02889e+13 -7.66496e+13 -1.97498e+14)
(-8.66835e+13 -2.91125e+12 -2.38541e+12 -7.30546e+13 -7.31914e+13 -2.13115e+14)
(-8.82788e+13 9.90467e+11 1.17031e+13 -7.18602e+13 -6.60596e+13 -2.15223e+14)
(-8.69481e+13 3.40196e+12 1.84203e+13 -6.77213e+13 -6.20816e+13 -2.0454e+14)
(-8.57895e+13 2.95214e+12 1.42753e+13 -6.71816e+13 -6.30427e+13 -1.93714e+14)
(-8.66456e+13 9.10856e+11 6.52838e+12 -7.23816e+13 -6.88666e+13 -1.95259e+14)
(-8.96165e+13 6.9865e+11 7.92807e+12 -8.05996e+13 -7.18668e+13 -2.13625e+14)
(-8.58921e+13 2.699e+12 2.62686e+13 -8.35986e+13 -6.40855e+13 -2.42661e+14)
(-6.47267e+13 3.82704e+12 4.10904e+13 -9.10196e+13 -6.00804e+13 -3.42496e+14)
(-1.65368e+13 -9.52847e+12 -1.79193e+13 9.48748e+12 6.40765e+13 -1.27862e+14)
(-8.05396e+13 -2.87954e+12 -9.9856e+12 -5.45974e+13 3.39179e+13 -2.26727e+14)
(-1.15729e+14 2.65008e+12 1.29117e+13 -9.01324e+13 -2.25907e+13 -2.89876e+14)
(-1.30284e+14 4.35385e+12 1.699e+13 -1.04119e+14 -6.84306e+13 -3.01277e+14)
(-1.32091e+14 3.14187e+12 4.31861e+12 -1.07721e+14 -9.52679e+13 -2.91994e+14)
(-1.29058e+14 1.67818e+12 -1.02581e+13 -1.0824e+14 -1.00554e+14 -2.8611e+14)
(-1.23227e+14 1.76065e+12 -1.4095e+13 -1.06137e+14 -8.7183e+13 -2.83045e+14)
(-1.1521e+14 3.56374e+12 -4.38756e+12 -1.01315e+14 -6.29979e+13 -2.74762e+14)
(-1.05043e+14 5.39194e+12 1.34871e+13 -9.3629e+13 -3.83293e+13 -2.53954e+14)
(-9.1177e+13 5.5711e+12 2.90234e+13 -8.00873e+13 -2.3665e+13 -2.15957e+14)
(-7.5024e+13 4.0873e+12 3.26104e+13 -6.25186e+13 -2.19588e+13 -1.68381e+14)
(-6.06493e+13 2.04381e+12 2.30994e+13 -4.71738e+13 -2.85999e+13 -1.27405e+14)
(-5.0518e+13 4.78004e+11 7.5415e+12 -3.80649e+13 -3.4926e+13 -1.02661e+14)
(-4.52903e+13 -3.70861e+11 -5.55071e+12 -3.53431e+13 -3.51373e+13 -9.54228e+13)
(-4.4884e+13 -7.80481e+11 -1.04311e+13 -3.69964e+13 -2.93425e+13 -1.02626e+14)
(-4.73966e+13 -1.06441e+12 -6.43647e+12 -3.92078e+13 -2.27172e+13 -1.15292e+14)
(-5.06132e+13 -1.24898e+12 9.99281e+11 -3.92806e+13 -2.17983e+13 -1.23927e+14)
(-5.42436e+13 -1.29627e+12 3.50916e+12 -3.89446e+13 -2.93774e+13 -1.27185e+14)
(-6.1036e+13 -1.77101e+12 -3.05443e+12 -4.39247e+13 -4.23224e+13 -1.35458e+14)
(-7.15556e+13 -3.12773e+12 -1.50349e+13 -5.51553e+13 -5.57907e+13 -1.56992e+14)
(-8.48971e+13 -4.41928e+12 -2.3418e+13 -7.03323e+13 -6.55679e+13 -1.92932e+14)
(-9.71129e+13 -4.06805e+12 -2.03326e+13 -8.37824e+13 -6.83589e+13 -2.30935e+14)
(-1.05248e+14 -1.67983e+12 -5.7473e+12 -9.12939e+13 -6.37382e+13 -2.56861e+14)
(-1.08244e+14 1.14006e+12 1.21708e+13 -9.17761e+13 -5.55932e+13 -2.62127e+14)
(-1.05783e+14 2.46592e+12 2.16547e+13 -8.60979e+13 -5.11227e+13 -2.46933e+14)
(-1.01838e+14 1.53264e+12 1.73563e+13 -8.19488e+13 -5.32058e+13 -2.27729e+14)
(-1.00643e+14 -1.38521e+11 7.3366e+12 -8.46226e+13 -6.09243e+13 -2.24571e+14)
(-1.0275e+14 3.668e+11 7.51103e+12 -9.21026e+13 -6.46947e+13 -2.43387e+14)
(-9.74476e+13 2.79801e+12 2.74377e+13 -9.33876e+13 -5.45318e+13 -2.73345e+14)
(-7.02605e+13 2.96791e+12 4.38079e+13 -9.54499e+13 -4.0803e+13 -3.74118e+14)
(-2.85927e+13 -8.07546e+12 -2.44625e+13 -2.21683e+13 8.60185e+13 -1.8584e+14)
(-1.04953e+14 -4.47747e+12 -6.96903e+12 -8.63568e+13 5.06904e+13 -2.88977e+14)
(-1.38842e+14 -1.79704e+11 2.25961e+13 -1.14083e+14 -5.93895e+12 -3.42882e+14)
(-1.47805e+14 1.6116e+12 2.6385e+13 -1.1899e+14 -5.31167e+13 -3.38316e+14)
(-1.45153e+14 1.65963e+12 9.92325e+12 -1.16939e+14 -8.2225e+13 -3.18127e+14)
(-1.40707e+14 1.66541e+12 -8.58894e+12 -1.16386e+14 -8.92709e+13 -3.10215e+14)
(-1.35811e+14 2.4148e+12 -1.42962e+13 -1.16436e+14 -7.68558e+13 -3.11249e+14)
(-1.28828e+14 3.76897e+12 -3.79737e+12 -1.139e+14 -5.34284e+13 -3.06744e+14)
(-1.1775e+14 4.59708e+12 1.61801e+13 -1.05827e+14 -2.99266e+13 -2.84014e+14)
(-1.01041e+14 4.01798e+12 3.31754e+13 -8.94199e+13 -1.63252e+13 -2.38489e+14)
(-8.12714e+13 2.38442e+12 3.66164e+13 -6.80468e+13 -1.53421e+13 -1.81412e+14)
(-6.40914e+13 7.46203e+11 2.56897e+13 -4.97212e+13 -2.25456e+13 -1.33441e+14)
(-5.2641e+13 -1.20634e+11 8.37421e+12 -3.93305e+13 -2.96298e+13 -1.05789e+14)
(-4.75306e+13 -2.34463e+11 -6.08212e+12 -3.71138e+13 -3.06532e+13 -9.91558e+13)
(-4.81652e+13 -1.08673e+11 -1.15997e+13 -4.05309e+13 -2.51147e+13 -1.08912e+14)
(-5.19854e+13 -2.43856e+11 -7.53349e+12 -4.48839e+13 -1.77652e+13 -1.24472e+14)
(-5.62301e+13 -6.98372e+11 4.37414e+11 -4.64901e+13 -1.53204e+13 -1.35221e+14)
(-6.03165e+13 -1.19163e+12 3.48504e+12 -4.62583e+13 -2.14374e+13 -1.3926e+14)
(-6.69845e+13 -1.76357e+12 -3.30283e+12 -4.98809e+13 -3.38973e+13 -1.47037e+14)