/*--------------------------------*- C++ -*----------------------------------*\
| =========                 |                                                 |
| \\      /  F ield         | OpenFOAM: The Open Source CFD Toolbox           |
|  \\    /   O peration     | Version:  2106                                  |
|   \\  /    A nd           | Website:  www.openfoam.com                      |
|    \\/     M anipulation  |                                                 |
\*---------------------------------------------------------------------------*/
FoamFile
{
    version     2.0;
    format      ascii;
    arch        "LSB;label=32;scalar=64";
    class       volVectorField;
    location    "943";
    object      D;
}
// * * * * * * * * * * * * * * * * * * * * * * * * * * * * * * * * * * * * * //

dimensions      [0 1 0 0 0 0 0];

internalField   nonuniform List<vector> 
9000
(
(-0.158074 -0.335785 -0.504173)
(0.0328179 -0.367833 -0.434115)
(0.0867804 -0.300677 -0.348558)
(0.0871636 -0.198023 -0.222921)
(0.0439293 -0.125196 -0.132836)
(-0.00781642 -0.112121 -0.11921)
(-0.0345651 -0.148033 -0.167376)
(-0.0250278 -0.192462 -0.223694)
(0.00564326 -0.206266 -0.238454)
(0.0322428 -0.178349 -0.203417)
(0.0406238 -0.129005 -0.145454)
(0.0284459 -0.0863794 -0.093651)
(0.00535035 -0.0709512 -0.0766309)
(-0.0129166 -0.0820512 -0.090872)
(-0.0214304 -0.109266 -0.121473)
(-0.0207185 -0.137667 -0.154755)
(-0.00921568 -0.153367 -0.179623)
(0.0135689 -0.147505 -0.180981)
(0.026192 -0.12243 -0.144912)
(0.0106283 -0.105944 -0.115792)
(-0.0206822 -0.122287 -0.128061)
(-0.042654 -0.172971 -0.190199)
(-0.034362 -0.227814 -0.263448)
(-0.00155603 -0.250428 -0.295618)
(0.0290239 -0.232708 -0.269838)
(0.0282069 -0.191611 -0.210376)
(-0.00435323 -0.163095 -0.174558)
(-0.0350908 -0.154427 -0.171733)
(-0.0363105 -0.136597 -0.161168)
(-0.0196425 -0.0511228 -0.0692467)
(-0.133444 -0.188453 -0.312172)
(0.0263335 -0.221657 -0.248652)
(0.068081 -0.17952 -0.199451)
(0.0681166 -0.118991 -0.125518)
(0.0345738 -0.0768825 -0.0721338)
(-0.00516727 -0.0690793 -0.0638456)
(-0.0256552 -0.0897366 -0.0913776)
(-0.0188389 -0.116103 -0.123331)
(0.00362218 -0.125388 -0.131461)
(0.0231975 -0.108918 -0.112296)
(0.0300346 -0.0781834 -0.0812509)
(0.0217622 -0.0529054 -0.0519923)
(0.00488918 -0.0433805 -0.0421679)
(-0.00862865 -0.0500741 -0.0495719)
(-0.0153632 -0.0673743 -0.0660909)
(-0.0157695 -0.0846777 -0.0850344)
(-0.00782254 -0.0914643 -0.101365)
(0.0103288 -0.0839786 -0.105186)
(0.0213992 -0.0711681 -0.0828894)
(0.0103652 -0.0644593 -0.0640756)
(-0.0131901 -0.0771253 -0.0687261)
(-0.03052 -0.10742 -0.103114)
(-0.0254708 -0.137813 -0.145542)
(-0.00153991 -0.149029 -0.165986)
(0.0215374 -0.138884 -0.15307)
(0.0197718 -0.117818 -0.117521)
(-0.00861987 -0.101356 -0.0969092)
(-0.0368472 -0.0940054 -0.0971503)
(-0.0420202 -0.0818124 -0.0907469)
(-0.0373528 -0.0308718 -0.0180456)
(-0.103214 -0.117111 -0.205738)
(0.0192195 -0.15192 -0.16085)
(0.0499503 -0.12034 -0.129361)
(0.0496916 -0.0797976 -0.0802661)
(0.0254629 -0.052532 -0.0446443)
(-0.00267507 -0.0477241 -0.0385967)
(-0.017183 -0.0619592 -0.055667)
(-0.0131093 -0.0804799 -0.0756866)
(0.00139893 -0.0877124 -0.0809863)
(0.0142449 -0.0761298 -0.0696361)
(0.0195711 -0.0534075 -0.0512888)
(0.0150475 -0.0360562 -0.0330492)
(0.00433174 -0.029598 -0.026552)
(-0.00454606 -0.0347099 -0.0304768)
(-0.0095725 -0.0475533 -0.0405088)
(-0.0108748 -0.059531 -0.0527455)
(-0.00613456 -0.0617896 -0.0641758)
(0.00736873 -0.0531439 -0.067869)
(0.0166007 -0.0460244 -0.0529848)
(0.00990006 -0.0437967 -0.0402608)
(-0.00602463 -0.0549242 -0.0422121)
(-0.0186368 -0.07629 -0.0631051)
(-0.0166778 -0.0958003 -0.0897596)
(-0.00166137 -0.101329 -0.103899)
(0.0137974 -0.0933073 -0.0979241)
(0.0111043 -0.0811025 -0.0755141)
(-0.0128256 -0.0701288 -0.062752)
(-0.0377383 -0.0634836 -0.0637663)
(-0.0447744 -0.0557759 -0.0575478)
(-0.0536245 -0.0255011 0.0147973)
(-0.0715342 -0.0890007 -0.128598)
(0.0129055 -0.121709 -0.104064)
(0.0333014 -0.0936744 -0.0841426)
(0.0326866 -0.0614809 -0.051272)
(0.0169772 -0.0406096 -0.0272961)
(-0.000573706 -0.0374586 -0.0227074)
(-0.00967664 -0.0496245 -0.033048)
(-0.00812531 -0.0653564 -0.0454956)
(-0.000801692 -0.0717261 -0.04912)
(0.00598774 -0.0618861 -0.0426633)
(0.0098552 -0.042163 -0.0320727)
(0.00867549 -0.0279048 -0.0209714)
(0.00364667 -0.0229561 -0.0166944)
(-0.000941687 -0.0278103 -0.0184715)
(-0.00434941 -0.0388506 -0.0245181)
(-0.00629248 -0.0484494 -0.0324801)
(-0.00429282 -0.0487921 -0.040259)
(0.00480994 -0.0398154 -0.0430736)
(0.0121131 -0.0347842 -0.0333405)
(0.00931491 -0.0340842 -0.0249993)
(0.000381733 -0.0444314 -0.0257258)
(-0.00780426 -0.062517 -0.0381171)
(-0.00855051 -0.0781142 -0.0544244)
(-0.00172355 -0.0812385 -0.0640783)
(0.00650785 -0.0729154 -0.0623704)
(0.00287535 -0.0634719 -0.0491275)
(-0.0166692 -0.054349 -0.0418028)
(-0.0379932 -0.0480906 -0.0431336)
(-0.0461372 -0.0440448 -0.0363983)
(-0.0677845 -0.0279279 0.0384864)
(-0.0411606 -0.0851557 -0.067596)
(0.00811752 -0.112056 -0.0613548)
(0.0189423 -0.0841775 -0.0500575)
(0.0178961 -0.054275 -0.0293501)
(0.00950923 -0.0353032 -0.0141137)
(0.00100297 -0.0329211 -0.0107432)
(-0.00351483 -0.0449606 -0.0163433)
(-0.00409616 -0.060252 -0.023416)
(-0.00282594 -0.0663543 -0.0258319)
(-0.00116098 -0.0569146 -0.0227749)
(0.00135687 -0.038017 -0.0175741)
(0.00297515 -0.0244627 -0.0116974)
(0.00285178 -0.0201159 -0.00918667)
(0.00200307 -0.0252119 -0.00956746)
(7.91417e-05 -0.0356915 -0.0127805)
(-0.00227285 -0.0444312 -0.0175628)
(-0.00250588 -0.0444059 -0.0224313)
(0.00272849 -0.0358336 -0.0242897)
(0.00824708 -0.0310175 -0.0184087)
(0.00873719 -0.0302925 -0.0133463)
(0.00575559 -0.0400597 -0.0133368)
(0.00138641 -0.0574587 -0.0197185)
(-0.00156525 -0.0725119 -0.0285676)
(-0.00167363 -0.0750847 -0.0347394)
(0.000203006 -0.065728 -0.0356838)
(-0.00432001 -0.0558907 -0.0292776)
(-0.0198944 -0.0465873 -0.0261474)
(-0.0377787 -0.0403926 -0.0277839)
(-0.0467808 -0.0392541 -0.0207032)
(-0.0793733 -0.033731 0.0557934)
(-0.0139445 -0.0937255 -0.0208049)
(0.00504317 -0.112173 -0.0293222)
(0.00739808 -0.0829743 -0.024378)
(0.00588199 -0.0525573 -0.0126707)
(0.00335324 -0.033298 -0.0039109)
(0.00202668 -0.031072 -0.00156871)
(0.0011247 -0.043599 -0.00392276)
(-0.00112181 -0.0593206 -0.00724882)
(-0.00459404 -0.0654523 -0.00878082)
(-0.00698546 -0.0560404 -0.00804766)
(-0.00563491 -0.0372804 -0.00657925)
(-0.00182711 -0.0234512 -0.00445747)
(0.00199105 -0.0191939 -0.00334184)
(0.00420568 -0.0245837 -0.00287847)
(0.00358082 -0.034985 -0.00408924)
(0.00100882 -0.0435921 -0.00650974)
(-0.000945686 -0.0440359 -0.00915778)
(0.00115679 -0.036347 -0.0102257)
(0.00520546 -0.0309539 -0.00709212)
(0.00827551 -0.0295156 -0.00435885)
(0.00997852 -0.0386871 -0.0038477)
(0.00862303 -0.0563203 -0.00604695)
(0.0039947 -0.0721436 -0.00966198)
(-0.00152812 -0.0751039 -0.0132269)
(-0.00479804 -0.0648423 -0.01569)
(-0.0100827 -0.053298 -0.0141476)
(-0.0223135 -0.0427875 -0.0141498)
(-0.0371647 -0.0363106 -0.0161059)
(-0.0468887 -0.0373476 -0.00897252)
(-0.088134 -0.0401632 0.0677369)
(0.00897085 -0.106876 0.0127881)
(0.00349606 -0.115595 -0.0064386)
(-0.00119623 -0.0846824 -0.00588451)
(-0.00317038 -0.0528758 -0.000471322)
(-0.00136813 -0.0325232 0.00374336)
(0.00255926 -0.0300445 0.00526112)
(0.0042764 -0.0429785 0.00498076)
(0.000821862 -0.0592158 0.00410837)
(-0.00609152 -0.065514 0.00318803)
(-0.0114662 -0.0562549 0.00241614)
(-0.0110445 -0.037703 0.0014236)
(-0.00564457 -0.0234413 0.00101124)
(0.00111522 -0.0190302 0.00108851)
(0.00568235 -0.0245507 0.00198671)
(0.0061385 -0.0349405 0.00210722)
(0.00348975 -0.0436759 0.0013537)
(0.000296777 -0.0449435 0.00028298)
(7.56291e-05 -0.0383595 -0.000227551)
(0.00303989 -0.0322514 0.00109997)
(0.0079892 -0.0299251 0.00230795)
(0.0130803 -0.0384093 0.0031764)
(0.0138899 -0.0562998 0.00372048)
(0.00807766 -0.0730623 0.00354501)
(-0.00132316 -0.0767649 0.0018064)
(-0.00840902 -0.0660757 -0.00140072)
(-0.0142635 -0.0526432 -0.00303828)
(-0.0238302 -0.0405616 -0.00520323)
(-0.0361536 -0.0334875 -0.00743669)
(-0.0464651 -0.0360091 -0.000497629)
(-0.0940624 -0.0455183 0.0751239)
(0.0270534 -0.11951 0.0349097)
(0.00309855 -0.11854 0.00895094)
(-0.00703615 -0.0861493 0.00676079)
(-0.00940798 -0.053132 0.00805353)
(-0.00468943 -0.0316585 0.0092754)
(0.00271563 -0.0286763 0.01017)
(0.00612667 -0.0416307 0.0110967)
(0.00185175 -0.0581001 0.0117009)
(-0.00734816 -0.0646184 0.0111682)
(-0.0147303 -0.0558565 0.00948246)
(-0.0149765 -0.0379312 0.00697254)
(-0.00851197 -0.0235204 0.00498141)
(0.000270675 -0.0188971 0.00434105)
(0.00652104 -0.0243105 0.00539265)
(0.00782879 -0.0345433 0.00632458)
(0.00520505 -0.0433991 0.00667048)
(0.00120372 -0.0455379 0.00663227)
(-0.000577224 -0.0400948 0.00646509)
(0.00167857 -0.0334759 0.00671343)
(0.00788854 -0.0303601 0.00702223)
(0.0151945 -0.0380432 0.00815119)
(0.0173904 -0.0557832 0.0103601)
(0.0108116 -0.0730812 0.0122613)
(-0.00109419 -0.077536 0.0117119)
(-0.0107297 -0.0669642 0.00825223)
(-0.0169226 -0.0520806 0.00475175)
(-0.0244328 -0.038484 0.00124668)
(-0.0347186 -0.0305713 -0.00117131)
(-0.045479 -0.0339455 0.00539814)
(-0.0973696 -0.0487873 0.0787875)
(0.0403046 -0.128559 0.0477355)
(0.00344332 -0.119025 0.0185584)
(-0.0105155 -0.0857473 0.0149362)
(-0.0131873 -0.0521585 0.0137362)
(-0.00675066 -0.029903 0.0131296)
(0.00262686 -0.0262826 0.013582)
(0.00693644 -0.0387946 0.0151177)
(0.00213273 -0.0550913 0.0165037)
(-0.00841644 -0.0618461 0.0161824)
(-0.016988 -0.0539871 0.0139829)
(-0.0176507 -0.0372237 0.0106214)
(-0.0105439 -0.023137 0.00774762)
(-0.000505983 -0.0183625 0.00665637)
(0.00684768 -0.0234329 0.00768526)
(0.00878507 -0.033275 0.00904895)
(0.00625242 -0.0421032 0.0100567)
(0.00180336 -0.0449898 0.0106287)
(-0.00088929 -0.0406223 0.0106446)
(0.000978777 -0.0338228 0.0103225)
(0.00795029 -0.0301287 0.0101811)
(0.0165075 -0.0368938 0.0115022)
(0.0194448 -0.0539237 0.0146167)
(0.0124243 -0.0711365 0.0176282)
(-0.000870745 -0.0761823 0.0177896)
(-0.0119716 -0.0662127 0.0143648)
(-0.018251 -0.0505721 0.00994283)
(-0.0241733 -0.0357495 0.00574328)
(-0.0328326 -0.0268429 0.00326329)
(-0.0439164 -0.0305019 0.00935824)
(-0.0983983 -0.0494387 0.0795524)
(0.0491701 -0.132452 0.0535187)
(0.0042005 -0.116268 0.0239394)
(-0.0120982 -0.0828635 0.0198733)
(-0.0149538 -0.049429 0.0173316)
(-0.0077443 -0.0268312 0.0157218)
(0.00241495 -0.0225143 0.0158843)
(0.0069802 -0.0341681 0.0176432)
(0.00184084 -0.0499058 0.0193449)
(-0.00935568 -0.0569065 0.0191022)
(-0.0184793 -0.0503329 0.0166413)
(-0.0193375 -0.0352565 0.0128724)
(-0.0118937 -0.0220023 0.00958964)
(-0.00118958 -0.0172041 0.00825468)
(0.00679845 -0.021733 0.00916391)
(0.00916361 -0.0309358 0.0106984)
(0.00675784 -0.0395339 0.0120487)
(0.0021442 -0.0429739 0.0129279)
(-0.000955674 -0.0395784 0.0130224)
(0.000773927 -0.032925 0.0124558)
(0.00813565 -0.0288761 0.0121603)
(0.0172175 -0.0346095 0.0136235)
(0.0204065 -0.0503757 0.0171421)
(0.0131752 -0.0668731 0.0206231)
(-0.000676714 -0.0722938 0.0211604)
(-0.0123885 -0.0633083 0.0179201)
(-0.0184985 -0.0476332 0.0131946)
(-0.023142 -0.0319698 0.00877351)
(-0.0304823 -0.0219893 0.00636343)
(-0.0417898 -0.0254256 0.0119431)
(-0.0975441 -0.0472742 0.0781933)
(0.0544115 -0.130679 0.054365)
(0.00516717 -0.110241 0.0263924)
(-0.0122237 -0.0775059 0.022574)
(-0.0151533 -0.0448375 0.0194688)
(-0.00787483 -0.0222863 0.0174145)
(0.00217921 -0.0172588 0.0174099)
(0.0065074 -0.0277383 0.0191613)
(0.00113924 -0.042616 0.020885)
(-0.0102218 -0.0498815 0.0206243)
(-0.0194362 -0.0449154 0.0180467)
(-0.0203082 -0.031977 0.0141453)
(-0.0127221 -0.0200151 0.0107523)
(-0.00176604 -0.0153477 0.00932359)
(0.00650133 -0.0191832 0.0100721)
(0.00911902 -0.0275227 0.0116108)
(0.00685019 -0.0356871 0.0130841)
(0.00227788 -0.0394794 0.0140677)
(-0.000865531 -0.0369513 0.0141797)
(0.000905813 -0.0307054 0.0135599)
(0.00840443 -0.0264839 0.0132887)
(0.0175092 -0.0310789 0.0148573)
(0.0206072 -0.0451111 0.0184727)
(0.0133104 -0.060358 0.0220296)
(-0.000530578 -0.0659503 0.022722)
(-0.0122273 -0.0582277 0.0197265)
(-0.0179204 -0.043149 0.0150672)
(-0.0214477 -0.0270349 0.0107486)
(-0.0276741 -0.0159528 0.0085344)
(-0.0391355 -0.0187144 0.0136137)
(-0.0951959 -0.0423401 0.075414)
(0.0569623 -0.12344 0.0521252)
(0.00626853 -0.101338 0.0269409)
(-0.011256 -0.0700163 0.0238029)
(-0.0141804 -0.0385331 0.0206407)
(-0.00733375 -0.0162997 0.018508)
(0.00199158 -0.0105679 0.0184325)
(0.00572409 -0.019668 0.0200531)
(0.000166278 -0.0334903 0.021628)
(-0.0110614 -0.0410556 0.0212806)
(-0.0200598 -0.0379482 0.0186563)
(-0.0208042 -0.0274997 0.0147731)
(-0.013178 -0.0172027 0.0114381)
(-0.00223075 -0.0128188 0.0100146)
(0.00606601 -0.0158532 0.0105997)
(0.00878959 -0.0231472 0.0120483)
(0.00664614 -0.0307034 0.013504)
(0.0022505 -0.0346762 0.0144659)
(-0.0006942 -0.0329263 0.0145622)
(0.00124137 -0.0272673 0.0139903)
(0.00872284 -0.0229941 0.0138382)
(0.0175394 -0.0263533 0.0154879)
(0.0203279 -0.0382929 0.0190322)
(0.0130394 -0.0518876 0.0224474)
(-0.000445313 -0.0574937 0.0231573)
(-0.0117003 -0.0512257 0.0204103)
(-0.0167479 -0.0372379 0.0160123)
(-0.0192039 -0.0210151 0.0120021)
(-0.0244336 -0.00883002 0.0100939)
(-0.0360052 -0.0105185 0.0147335)
(-0.0917003 -0.0348737 0.0718283)
(0.0577956 -0.111399 0.0483513)
(0.00752874 -0.0901558 0.0263541)
(-0.00946853 -0.0608797 0.0241145)
(-0.0123582 -0.0308034 0.0212147)
(-0.00628772 -0.00903063 0.0192384)
(0.00189785 -0.00260753 0.019167)
(0.00478863 -0.0102229 0.0206043)
(-0.00096763 -0.022894 0.0219426)
(-0.0119084 -0.0308093 0.0214605)
(-0.0205097 -0.0297433 0.0188098)
(-0.021022 -0.0220341 0.0150076)
(-0.013388 -0.0136765 0.0118064)
(-0.00258632 -0.00970826 0.0104439)
(0.00557993 -0.0118693 0.0108887)
(0.00829017 -0.0179828 0.0122062)
(0.0062432 -0.0247995 0.0135636)
(0.00209985 -0.0288245 0.0144322)
(-0.000500213 -0.0277835 0.0144954)
(0.00167781 -0.0228154 0.0140164)
(0.00906551 -0.018552 0.0140244)
(0.0174317 -0.0205911 0.015741)
(0.0197888 -0.0301908 0.0191415)
(0.0125275 -0.0418666 0.022317)
(-0.00042829 -0.0473824 0.0229634)
(-0.0109748 -0.0426949 0.0204345)
(-0.0151746 -0.0301547 0.0163783)
(-0.0165206 -0.0140917 0.0127938)
(-0.0208018 -0.000805501 0.011281)
(-0.0324573 -0.00107827 0.015576)
(-0.0873452 -0.0252674 0.067941)
(0.057814 -0.0955081 0.0442827)
(0.00902954 -0.0773567 0.0251826)
(-0.00705309 -0.0506114 0.0238894)
(-0.00993774 -0.0220002 0.0214473)
(-0.00487555 -0.000723813 0.0197781)
(0.00192132 0.00637597 0.0197695)
(0.00381518 0.000271245 0.021015)
(-0.00217757 -0.0112332 0.0220836)
(-0.0127818 -0.0195584 0.0214335)
(-0.0208999 -0.0206544 0.0187458)
(-0.0211083 -0.0158392 0.0150298)
(-0.0134522 -0.0096006 0.0119748)
(-0.00284027 -0.00614688 0.0106948)
(0.00510782 -0.00738915 0.011039)
(0.00771014 -0.0122333 0.012223)
(0.00571812 -0.0182254 0.0134442)
(0.00185573 -0.0222194 0.0141841)
(-0.000325491 -0.0218364 0.0142052)
(0.00214088 -0.017605 0.0138312)
(0.0094139 -0.0133661 0.0140079)
(0.0172755 -0.0140186 0.0157865)
(0.0191501 -0.0211296 0.0190318)
(0.011897 -0.0307368 0.021946)
(-0.000481243 -0.0361086 0.0224848)
(-0.0101728 -0.0330801 0.0201252)
(-0.0133543 -0.0222253 0.0164203)
(-0.0135009 -0.00651059 0.0133156)
(-0.0168308 0.00788814 0.0122649)
(-0.028548 0.00931222 0.0163328)
(-0.0823474 -0.0140365 0.0641262)
(0.0577673 -0.0768802 0.0408469)
(0.0108674 -0.0635925 0.0237946)
(-0.00414129 -0.0396983 0.0233692)
(-0.00710915 -0.0124968 0.0215005)
(-0.00321088 0.00831839 0.0202365)
(0.00206764 0.016078 0.020337)
(0.00288156 0.0114514 0.0214084)
(-0.00339825 0.00107228 0.0222082)
(-0.013684 -0.00772377 0.0213686)
(-0.0212996 -0.0110472 0.0186174)
(-0.021161 -0.00919597 0.014958)
(-0.0134427 -0.00516869 0.0120217)
(-0.0030028 -0.00228906 0.0108209)
(0.00469321 -0.00258732 0.011114)
(0.00711431 -0.00611518 0.0121877)
(0.00512833 -0.0112409 0.0132642)
(0.00154158 -0.01516 0.0138626)
(-0.000197432 -0.0153989 0.0138368)
(0.00257931 -0.0119098 0.0135622)
(0.00975234 -0.00768126 0.0138986)
(0.0171273 -0.00690272 0.0157393)
(0.0185182 -0.0114586 0.0188543)
(0.0112328 -0.0189414 0.0215312)
(-0.000600333 -0.0241563 0.0219421)
(-0.00937661 -0.0228316 0.019695)
(-0.0114042 -0.013805 0.0163108)
(-0.0102394 0.00144802 0.0136967)
(-0.012579 0.0169916 0.0131534)
(-0.0243257 0.0203269 0.0171193)
(-0.0768422 -0.0017804 0.0606082)
(0.0582001 -0.0567023 0.0386679)
(0.0131159 -0.0494672 0.0224078)
(-0.000830416 -0.0285775 0.0226838)
(-0.00401797 -0.00266801 0.0214534)
(-0.00138756 0.0177539 0.0206591)
(0.00232924 0.0261495 0.0209048)
(0.00203818 0.0229278 0.0218335)
(-0.00457675 0.0135971 0.0223874)
(-0.0145988 0.00427842 0.021348)
(-0.0217355 -0.0012847 0.0185027)
(-0.0212317 -0.00239067 0.0148547)
(-0.0134048 -0.000588248 0.0119878)
(-0.003085 0.00169834 0.010847)
(0.00436055 0.00235323 0.0111434)
(0.00654522 0.00015064 0.0121456)
(0.0045149 -0.00410515 0.0130872)
(0.00117664 -0.00793558 0.0135456)
(-0.00013154 -0.00877021 0.0134705)
(0.00295826 -0.006004 0.0132809)
(0.0100635 -0.00175904 0.0137574)
(0.0170125 0.000467609 0.0156613)
(0.0179524 -0.0015359 0.0186883)
(0.0105887 -0.00691147 0.0211761)
(-0.000775825 -0.0119862 0.0214537)
(-0.00863446 -0.0123831 0.0192632)
(-0.00941073 -0.00525355 0.016149)
(-0.00682372 0.00948744 0.0140086)
(-0.00811001 0.0262268 0.0139973)
(-0.0198274 0.0316172 0.0179791)
(-0.070877 0.0108605 0.0574485)
(0.0594203 -0.0361695 0.0380764)
(0.015798 -0.0355231 0.0211141)
(0.00279298 -0.0176352 0.02187)
(-0.000781642 0.0071166 0.0213089)
(0.00051388 0.0272119 0.021025)
(0.00268841 0.0362063 0.021442)
(0.00131588 0.0342878 0.0222656)
(-0.00566554 0.0259099 0.0226106)
(-0.0154888 0.0160363 0.0213743)
(-0.022193 0.0082767 0.018412)
(-0.021329 0.00429463 0.0147307)
(-0.0133579 0.0039312 0.0118782)
(-0.00309836 0.00564355 0.0107705)
(0.00411684 0.0072449 0.011125)
(0.00602574 0.00634151 0.0121007)
(0.00390589 0.00292773 0.0129275)
(0.0007783 -0.000821482 0.0132558)
(-0.000133445 -0.0022302 0.013132)
(0.00325364 -0.000153075 0.0130094)
(0.0103239 0.00413532 0.0135992)
(0.0169264 0.00779465 0.015562)
(0.017471 0.00827882 0.0185449)
(0.00999368 0.00493451 0.0209003)
(-0.000990729 -3.47684e-05 0.0210499)
(-0.00796494 -0.00214428 0.0188682)
(-0.00743478 0.00307921 0.015968)
(-0.00333771 0.0173052 0.0142676)
(-0.00349578 0.0352966 0.0147929)
(-0.0150818 0.0428128 0.0188847)
(-0.0644102 0.0232461 0.0545426)
(0.061489 -0.01643 0.0391235)
(0.018868 -0.02224 0.0198977)
(0.00663458 -0.00721497 0.0208822)
(0.00249646 0.0164935 0.0209952)
(0.00241989 0.0363007 0.021242)
(0.00311844 0.0458368 0.0218451)
(0.00073118 0.045099 0.0225999)
(-0.00661704 0.037571 0.0227833)
(-0.0162919 0.0271399 0.0213708)
(-0.0226156 0.0172894 0.0182897)
(-0.0214198 0.0105893 0.0145477)
(-0.013298 0.00818748 0.0116632)
(-0.0030558 0.00937612 0.0105612)
(0.0039521 0.011898 0.0110238)
(0.00556108 0.012234 0.0120158)
(0.00331969 0.00960903 0.0127514)
(0.000364844 0.0059217 0.0129657)
(-0.000199488 0.00396143 0.012798)
(0.00344861 0.00539181 0.0127249)
(0.010501 0.00974294 0.0133938)
(0.0168335 0.0147818 0.0153979)
(0.0170542 0.0176272 0.018368)
(0.00945609 0.0161867 0.0206432)
(-0.00121771 0.0112807 0.0206787)
(-0.00735755 0.00750162 0.0184743)
(-0.0055159 0.0108639 0.0157394)
(0.000131252 0.0246018 0.0144355)
(0.00117342 0.043883 0.0154785)
(-0.0101185 0.0535171 0.0197325)
(-0.0573135 0.0347681 0.0516271)
(0.0642272 0.0014642 0.0415975)
(0.0222043 -0.0100377 0.0186457)
(0.0105795 0.00237302 0.0195954)
(0.00571595 0.0251069 0.0203625)
(0.00425818 0.044618 0.0211378)
(0.00358318 0.0546137 0.0219269)
(0.000288973 0.0549176 0.0226426)
(-0.00737987 0.0481359 0.0227186)
(-0.0169183 0.037183 0.0211763)
(-0.0229031 0.0254186 0.0180119)
(-0.0214298 0.0162419 0.0142188)
(-0.0131998 0.0119955 0.011279)
(-0.00297416 0.0127339 0.0101597)
(0.00383834 0.0161238 0.0107693)
(0.00514037 0.0176056 0.0118096)
(0.00276816 0.015697 0.0124755)
(-4.15478e-05 0.0120489 0.0125978)
(-0.000315911 0.00956648 0.0123983)
(0.00353205 0.0103992 0.0123614)
(0.0105507 0.014821 0.013067)
(0.0166664 0.0211434 0.0150717)
(0.0166445 0.0261568 0.0180306)
(0.00896711 0.0264411 0.0202592)
(-0.00141442 0.0215591 0.0202038)
(-0.00676975 0.0162004 0.0179743)
(-0.00367425 0.0178023 0.0153766)
(0.00348313 0.0310919 0.01442)
(0.00577277 0.0516502 0.0159271)
(-0.00498382 0.0633063 0.0203319)
(-0.04938 0.0448761 0.0482887)
(0.0672405 0.0166049 0.0450474)
(0.025612 0.000724275 0.017153)
(0.0144858 0.0108496 0.0178015)
(0.00877181 0.0326188 0.0191728)
(0.0059533 0.0517709 0.0204475)
(0.00403627 0.0621159 0.0214031)
(-1.59868e-05 0.0633081 0.0220957)
(-0.00789653 0.05717 0.0221233)
(-0.0172469 0.0457752 0.0205335)
(-0.0229086 0.0323532 0.0173807)
(-0.0212429 0.0210318 0.0136078)
(-0.0130188 0.015199 0.0106286)
(-0.00287724 0.0155731 0.00947525)
(0.00372838 0.0197427 0.0102498)
(0.00473794 0.0222415 0.0113501)
(0.0022596 0.020963 0.0119619)
(-0.000411812 0.0173361 0.0120212)
(-0.000457469 0.0143738 0.0118148)
(0.0034983 0.0146657 0.0118089)
(0.010416 0.0191549 0.0124997)
(0.0163235 0.0266194 0.0144288)
(0.0161461 0.0335319 0.0173263)
(0.00850289 0.0353071 0.0195073)
(-0.00151856 0.0304207 0.0193964)
(-0.00612223 0.023636 0.0171858)
(-0.0019111 0.023643 0.0147359)
(0.00659614 0.0365215 0.0140719)
(0.0101257 0.0582585 0.0159352)
(0.000239298 0.0717407 0.0203873)
(-0.0403423 0.0531038 0.0439733)
(0.0699581 0.0282787 0.0488116)
(0.0288345 0.0097584 0.0151201)
(0.0181834 0.0179806 0.015199)
(0.0115498 0.0387363 0.0170865)
(0.00742374 0.0574123 0.0187972)
(0.00442103 0.0679695 0.0198738)
(-0.000198027 0.069883 0.0205392)
(-0.00810249 0.0642854 0.0205798)
(-0.0171253 0.0525719 0.0190741)
(-0.0224385 0.0378304 0.0161147)
(-0.0207031 0.0247876 0.012525)
(-0.0126945 0.0176871 0.00958018)
(-0.00279811 0.0177838 0.00838232)
(0.00355521 0.0225991 0.00930592)
(0.00431494 0.0259502 0.010446)
(0.00180148 0.0252075 0.01101)
(-0.000707659 0.0215948 0.0110457)
(-0.000586353 0.0182127 0.0108771)
(0.00334737 0.0180307 0.0109108)
(0.0100277 0.0225761 0.0115251)
(0.0156688 0.0309971 0.0132519)
(0.0154241 0.0394597 0.0159587)
(0.00802642 0.042432 0.0180351)
(-0.00144396 0.0375297 0.017921)
(-0.00529522 0.0295516 0.0158458)
(-0.000208848 0.0282027 0.0136165)
(0.00932059 0.0406941 0.013183)
(0.0139905 0.0633968 0.0152088)
(0.00541164 0.0783995 0.019476)
(-0.0299004 0.0591079 0.0379911)
(0.0716897 0.0360186 0.0520534)
(0.0315751 0.0168796 0.0121476)
(0.0214798 0.0236178 0.0113778)
(0.0139258 0.0432664 0.0136442)
(0.00858132 0.0613061 0.0156856)
(0.00467155 0.0719169 0.0168046)
(-0.000279469 0.0743741 0.0174104)
(-0.00792708 0.069208 0.0175251)
(-0.0163722 0.0573328 0.0163008)
(-0.0212576 0.0416797 0.0138374)
(-0.0196188 0.0274173 0.0107229)
(-0.0121535 0.0194168 0.00796583)
(-0.00278014 0.0193148 0.00671648)
(0.0032331 0.0245897 0.00772149)
(0.00382169 0.0285945 0.00883587)
(0.00140268 0.0282908 0.00934632)
(-0.000880509 0.0247009 0.00941425)
(-0.000652259 0.020978 0.00935716)
(0.00308517 0.020401 0.00945987)
(0.00930538 0.02499 0.00992468)
(0.0145352 0.0341476 0.0112545)
(0.0143087 0.0437365 0.0135271)
(0.00748963 0.0475555 0.0153598)
(-0.00107953 0.042644 0.0153182)
(-0.00412832 0.0337893 0.0136012)
(0.00146839 0.0314 0.0117591)
(0.0114779 0.0435103 0.0114824)
(0.0170553 0.066839 0.0133494)
(0.0103217 0.0829501 0.017025)
(-0.0177602 0.0627305 0.0295196)
(0.0716957 0.0396671 0.0538002)
(0.0335274 0.0220687 0.00772769)
(0.0241697 0.0277798 0.00580343)
(0.0157682 0.0462109 0.0082505)
(0.00933322 0.0634319 0.0104667)
(0.00471558 0.0739292 0.0115089)
(-0.000289543 0.0767473 0.0119864)
(-0.00729732 0.0718898 0.0122318)
(-0.0147876 0.0600197 0.0115706)
(-0.0191012 0.0438964 0.0100664)
(-0.0177742 0.0289565 0.00789136)
(-0.0113152 0.0204476 0.0055805)
(-0.00287624 0.0202098 0.00427213)
(0.00266152 0.0257088 0.00521592)
(0.00320151 0.0301444 0.00617768)
(0.00107517 0.0301872 0.00661524)
(-0.000872318 0.0266436 0.00679539)
(-0.000594065 0.0226735 0.00696411)
(0.00272384 0.0217904 0.00719424)
(0.00816253 0.0264184 0.00742487)
(0.0127331 0.0360826 0.00807443)
(0.0126034 0.0463278 0.00951432)
(0.00683699 0.0506039 0.0108497)
(-0.000292399 0.0457033 0.0109867)
(-0.00242666 0.0363568 0.0100006)
(0.00317226 0.0333045 0.00884529)
(0.0128658 0.0450242 0.0086354)
(0.0189459 0.0685335 0.00984274)
(0.014678 0.0852616 0.0122904)
(-0.0036818 0.0640977 0.0176059)
(0.0692751 0.0394531 0.0529945)
(0.0344119 0.0255833 0.0012411)
(0.0260514 0.0307902 -0.00219083)
(0.0169453 0.0479166 0.00016683)
(0.00958705 0.0641445 0.00234425)
(0.00447948 0.0743746 0.00314272)
(-0.000262793 0.0773774 0.00337767)
(-0.00614547 0.0726844 0.00379982)
(-0.0121711 0.0609506 0.00408735)
(-0.0157004 0.0447561 0.00420941)
(-0.0149502 0.0296413 0.00365786)
(-0.0101007 0.0209895 0.002184)
(-0.00314558 0.0206592 0.000803712)
(0.00173379 0.026119 0.00144049)
(0.00239684 0.0307612 0.00204369)
(0.000834511 0.0310699 0.00237474)
(-0.00061932 0.0276033 0.00278121)
(-0.000344128 0.0234779 0.00334302)
(0.00228185 0.0223799 0.00379746)
(0.00651538 0.0270638 0.00369753)
(0.0100683 0.0370394 0.00327371)
(0.0101038 0.0474909 0.00328123)
(0.00601197 0.0518409 0.00371546)
(0.00106211 0.0469725 0.00417631)
(2.23197e-05 0.0375319 0.00449332)
(0.00496353 0.0342076 0.00450265)
(0.0132724 0.0455234 0.00424749)
(0.0192522 0.0687336 0.00405706)
(0.0181164 0.0855814 0.00434987)
(0.0124622 0.063779 0.00117646)
(0.0638657 0.0360837 0.048562)
(0.0340142 0.0281332 -0.0080209)
(0.0269434 0.0334885 -0.0133828)
(0.0173366 0.0492994 -0.0114637)
(0.00925966 0.0644089 -0.00960258)
(0.00389623 0.0742638 -0.00926794)
(-0.000235704 0.0773057 -0.00944307)
(-0.00442039 0.0726057 -0.00881701)
(-0.00835333 0.0610282 -0.00707433)
(-0.0108247 0.0449822 -0.00441603)
(-0.0109606 0.0300116 -0.00239792)
(-0.00844751 0.0214695 -0.00248853)
(-0.00364612 0.0210701 -0.003965)
(0.000352964 0.0262548 -0.0040119)
(0.00135858 0.0309229 -0.00406755)
(0.000698855 0.0314381 -0.00388992)
(-5.98697e-05 0.0280662 -0.00309888)
(0.000163572 0.0238432 -0.00191247)
(0.00178307 0.0226042 -0.00109006)
(0.00429691 0.0273993 -0.00162733)
(0.00637252 0.0376033 -0.0036456)
(0.00663035 0.0479576 -0.00591341)
(0.00496804 0.0520954 -0.00696783)
(0.0031199 0.0472578 -0.0059912)
(0.00341535 0.038015 -0.00355107)
(0.00689811 0.0347192 -0.00167773)
(0.0125006 0.0456343 -0.00211692)
(0.0175814 0.0681826 -0.00473488)
(0.0202329 0.084798 -0.00787175)
(0.0306189 0.0630388 -0.0209196)
(0.0551476 0.0308604 0.0395059)
(0.0322151 0.0311398 -0.0207912)
(0.0267039 0.0375401 -0.0285902)
(0.0168479 0.0521691 -0.0275408)
(0.00828976 0.0661402 -0.0263427)
(0.00291659 0.075606 -0.0267482)
(-0.000240304 0.0786132 -0.0275581)
(-0.00210146 0.0737096 -0.0267279)
(-0.00324053 0.0620758 -0.0228953)
(-0.00434254 0.0459908 -0.0165272)
(-0.00570274 0.0310605 -0.0107083)
(-0.00632854 0.0226272 -0.00870412)
(-0.004422 0.0221709 -0.0103204)
(-0.00154396 0.0269748 -0.0115747)
(5.88094e-05 0.0316085 -0.0126902)
(0.000685817 0.0323032 -0.0127236)
(0.00085321 0.0289903 -0.0113388)
(0.000980935 0.0246359 -0.00922589)
(0.001254 0.0232762 -0.00784064)
(0.00147545 0.0282986 -0.00893052)
(0.00154842 0.0388848 -0.0132005)
(0.00207852 0.049202 -0.0188533)
(0.00368498 0.0530963 -0.0221849)
(0.00597531 0.048223 -0.020448)
(0.00787999 0.0391496 -0.0147877)
(0.00900392 0.0359042 -0.0101046)
(0.0104051 0.0464706 -0.0108983)
(0.0136416 0.0683765 -0.0172994)
(0.0206485 0.0848305 -0.0255192)
(0.0504749 0.0642263 -0.0498054)
(0.0431348 0.0258323 0.0249929)
(0.0289875 0.0371335 -0.0377964)
(0.0252452 0.0459078 -0.0486542)
(0.0154299 0.0597315 -0.0490035)
(0.00665279 0.0727369 -0.0489024)
(0.00152264 0.0819699 -0.0503922)
(-0.000293954 0.0850088 -0.0521214)
(0.000788531 0.07969 -0.0511078)
(0.00313551 0.0673594 -0.0444087)
(0.00370731 0.0502722 -0.032877)
(0.000783419 0.034468 -0.0217279)
(-0.00377411 0.0256716 -0.0167507)
(-0.0054868 0.0251835 -0.0185791)
(-0.0039563 0.0298007 -0.0217109)
(-0.00149494 0.0345833 -0.0243862)
(0.000807893 0.0354752 -0.0246968)
(0.00213774 0.0320632 -0.0224531)
(0.00213059 0.0273572 -0.0190361)
(0.000718589 0.0257811 -0.0168414)
(-0.00192613 0.0312391 -0.0186151)
(-0.00437804 0.0428001 -0.0259422)
(-0.00352133 0.0538584 -0.0363639)
(0.0021887 0.0579869 -0.0429591)
(0.00963977 0.0528723 -0.0401538)
(0.0134075 0.0432623 -0.0298911)
(0.0112506 0.0395004 -0.0212081)
(0.00693457 0.0498715 -0.0225773)
(0.00734582 0.0719793 -0.0344712)
(0.0191064 0.0892469 -0.0498123)
(0.0713554 0.0714165 -0.0865459)
(0.028212 0.0240387 0.00416382)
(0.0243078 0.0504564 -0.0604644)
(0.0225365 0.0636943 -0.0753573)
(0.013095 0.0775125 -0.0778938)
(0.00437344 0.0900822 -0.0795492)
(-0.000261331 0.0995497 -0.0826442)
(-0.000387772 0.10294 -0.0856782)
(0.00417971 0.0969796 -0.0844403)
(0.010585 0.0825465 -0.0737669)
(0.0130669 0.0620981 -0.0550703)
(0.00827279 0.0430554 -0.0365147)
(-0.000887631 0.0326055 -0.0273929)
(-0.00680923 0.032176 -0.0295448)
(-0.00679587 0.0373622 -0.0354136)
(-0.00324956 0.0429142 -0.0403068)
(0.00106864 0.0440856 -0.040984)
(0.00377186 0.040176 -0.0375129)
(0.00359508 0.0345482 -0.0322654)
(0.000192008 0.032441 -0.0289352)
(-0.00582128 0.038701 -0.0316248)
(-0.0112218 0.0526183 -0.0431505)
(-0.00995808 0.066492 -0.0601795)
(0.000567043 0.07224 -0.0712929)
(0.0140098 0.0664012 -0.0669661)
(0.0198003 0.0542899 -0.0502778)
(0.0135239 0.0483659 -0.0360828)
(0.00216179 0.0589048 -0.038423)
(-0.0011046 0.0836268 -0.0581781)
(0.0155805 0.104412 -0.0833068)
(0.0920871 0.0915997 -0.133358)
(0.0110724 0.0299985 -0.0253479)
(0.0179007 0.0787728 -0.0951855)
(0.01859 0.0999636 -0.116782)
(0.00993213 0.115419 -0.123431)
(0.00153217 0.128803 -0.128459)
(-0.00236744 0.139587 -0.13446)
(-0.000480303 0.144108 -0.139558)
(0.00796955 0.137189 -0.137587)
(0.0187809 0.117818 -0.120343)
(0.0232806 0.0891041 -0.0901929)
(0.0163673 0.061846 -0.0599448)
(0.00215526 0.0470156 -0.0443186)
(-0.00831391 0.0468987 -0.0469655)
(-0.00988789 0.0543827 -0.0570465)
(-0.00510879 0.0620972 -0.065429)
(0.00146373 0.0637396 -0.0666867)
(0.00569938 0.0584782 -0.0612059)
(0.0053218 0.0506995 -0.0529849)
(-0.00032261 0.0473476 -0.0479032)