/*--------------------------------*- C++ -*----------------------------------*\
| =========                 |                                                 |
| \\      /  F ield         | OpenFOAM: The Open Source CFD Toolbox           |
|  \\    /   O peration     | Version:  2106                                  |
|   \\  /    A nd           | Website:  www.openfoam.com                      |
|    \\/     M anipulation  |                                                 |
\*---------------------------------------------------------------------------*/
FoamFile
{
    version     2.0;
    format      ascii;
    arch        "LSB;label=32;scalar=64";
    class       volSymmTensorField;
    location    "943";
    object      epsilon;
}
// * * * * * * * * * * * * * * * * * * * * * * * * * * * * * * * * * * * * * //

dimensions      [0 0 0 0 0 0 0];

internalField   nonuniform List<symmTensor> 
9000
(
(1787.29 45.5592 -500.16 2857.84 -794.349 -9237.47)
(367.282 -11.1667 388.15 2872.42 -925.958 -7916.33)
(81.5185 -6.4452 868.258 2363.94 -750.263 -6266.96)
(-64.2767 -5.6181 871.542 1532.96 -495.916 -3932.29)
(-142.47 -2.86761 430.947 930.33 -317.369 -2272.05)
(-117.741 1.37218 -89.1171 831.197 -285.943 -2043.47)
(-25.8171 3.28516 -354.813 1139.36 -376.906 -2958.88)
(60.3125 1.37121 -253.48 1501.99 -490.171 -4010.4)
(85.9059 -2.2867 59.9388 1592.23 -526.931 -4275.46)
(52.4708 -4.94716 329.546 1362.29 -454.821 -3629.67)
(-5.69534 -5.22084 416.582 989.632 -325.007 -2580.88)
(-52.9102 -3.29378 288.631 646.226 -217.999 -1627.15)
(-62.0438 -0.106367 49.794 533.026 -179.736 -1325.08)
(-40.1711 1.71178 -132.163 623.589 -208.811 -1591.39)
(-11.7028 1.89585 -214.274 820.566 -279.986 -2140.98)
(18.3221 2.02136 -206.253 1038.54 -352.272 -2743.64)
(51.431 1.5351 -94.1933 1211.4 -385.791 -3227.33)
(53.1115 -0.548887 138.809 1240.1 -360.741 -3299.2)
(-4.41081 -2.38766 269.007 996.582 -302.671 -2597.67)
(-70.3113 -0.932764 110.107 802.035 -266.672 -2016.6)
(-79.9235 2.95998 -208.952 875.257 -314.205 -2200.99)
(-20.5197 5.92985 -433.427 1282.52 -444.058 -3341.33)
(61.647 4.2955 -346.455 1769.72 -579.436 -4714.78)
(95.0787 -1.77535 -9.23189 1991.54 -629.994 -5327.63)
(44.6444 -6.01913 308.463 1831.57 -582.713 -4838.75)
(-50.0656 -5.5287 297.869 1432.61 -485.971 -3686.94)
(-94.9466 -2.05763 -41.0172 1195.32 -416.46 -3017.81)
(-47.9358 3.35149 -368.691 1171.93 -391.592 -3007.45)
(23.1726 17.3393 -412.122 1080.41 -349.193 -2869.24)
(232.844 -1.54486 -152.802 398.77 -139.836 -1282.66)
(1355.35 78.0184 -418.785 1640.06 -1075.47 -6382.31)
(302.288 -44.2937 294.678 1619.34 -1406.5 -5284.54)
(62.6747 -61.1135 634.078 1352.53 -1114.8 -4182.29)
(-50.2609 -63.542 634.517 886.687 -742.776 -2594.9)
(-109.926 -31.8148 316.734 544.979 -487.666 -1462.44)
(-90.3434 9.63948 -51.7337 482.979 -443.639 -1296.88)
(-20.5075 29.9149 -238.936 645.55 -579.818 -1890.84)
(43.916 17.9562 -173.916 839.868 -753.606 -2573.8)
(63.0546 -10.5274 33.8597 889.153 -817.464 -2746.96)
(39.6187 -32.0887 214.381 766.646 -706.414 -2342.65)
(-2.15287 -36.9381 282.889 566.98 -493.644 -1691.53)
(-37.7182 -24.1419 206.177 377.424 -333.46 -1068.92)
(-45.5863 -1.69628 46.5029 310.149 -275.125 -862.466)
(-30.3786 13.3943 -77.2679 355.06 -322.27 -1019.55)
(-10.7112 18.5145 -138.65 462.847 -438.964 -1366.88)
(11.3111 18.8463 -144.939 586.023 -550.864 -1766.15)
(39.1475 12.0785 -77.0551 686.828 -580.036 -2118.99)
(43.8326 -8.02828 96.9313 707.71 -505.676 -2213.52)
(0.0545645 -21.328 206.25 573.042 -437.436 -1726.69)
(-51.8839 -7.19886 104.394 466.103 -404.879 -1316.95)
(-61.3279 22.7455 -114.879 505.218 -500.303 -1405.02)
(-18.421 44.5486 -278.704 725.109 -700.953 -2131.03)
(43.4702 35.1085 -233.868 990.101 -891.61 -3033.26)
(70.5123 -1.1979 -12.0632 1118.24 -947.656 -3471.18)
(31.9675 -33.6905 210.34 1045.5 -868.492 -3199.96)
(-45.2359 -35.9889 191.262 828.816 -748.79 -2423.95)
(-84.9284 -13.9122 -91.9508 697.245 -648.281 -1977.72)
(-50.1005 4.72952 -385.92 682.075 -595.058 -1990.94)
(-0.758484 15.6105 -469.939 606.157 -528.3 -1859.46)
(59.1459 -25.5526 -230.049 192.163 -234.224 -414.358)
(1011.06 90.0159 -320.412 745.894 -1024.47 -4262.96)
(229.746 -52.7767 205.907 749.608 -1415.89 -3528.29)
(45.7082 -76.3317 438.614 643.839 -1099.32 -2795.61)
(-36.7311 -82.0067 435.078 431.328 -730.109 -1717.79)
(-78.5501 -41.932 219.892 272.047 -482.135 -946.125)
(-63.9688 10.1554 -21.8302 237.156 -444.321 -821.2)
(-15.6513 35.3527 -144.442 300.841 -589.408 -1196.41)
(27.8729 20.861 -110.769 380.601 -773.105 -1633.33)
(41.0313 -13.3269 9.42701 402.463 -841.606 -1750.06)
(27.2583 -38.8078 117.114 352.739 -722.962 -1504.72)
(1.20386 -45.6177 169.227 270.153 -492.778 -1107.34)
(-22.859 -31.2182 134.216 187.505 -328.665 -709.003)
(-29.3903 -3.64972 42.2157 153.183 -272.497 -567.258)
(-20.8564 15.3596 -32.6387 166.978 -326.874 -651.634)
(-9.49311 22.686 -76.7785 213.927 -450.728 -869.522)
(5.15691 24.8615 -92.1913 271.712 -563.84 -1135.23)
(27.3653 18.0268 -57.4331 320.041 -581.004 -1384.61)
(34.1029 -8.87203 64.2257 331.224 -486.836 -1466.64)
(3.797 -27.8124 150.976 272.879 -425.073 -1139.45)
(-33.938 -10.6135 96.1579 227.814 -399.924 -861.735)
(-42.8053 26.5244 -38.5127 245.204 -508.122 -903.196)
(-15.9798 54.5271 -148.681 336.77 -720.149 -1355.45)
(25.4631 44.6716 -137.381 447.743 -914.096 -1932.31)
(45.7128 1.18103 -14.5834 508.429 -959.372 -2238.28)
(19.1484 -41.1905 122.903 494.762 -860.15 -2111.01)
(-39.9345 -45.9776 95.7378 407.593 -744.37 -1613.12)
(-73.2638 -16.971 -135.448 352.551 -642.963 -1326.87)
(-47.9232 6.46718 -392.189 344.361 -583.357 -1346.37)
(-23.8293 13.0482 -491.443 283.257 -530.6 -1197.31)
(-73.2065 -34.3814 -290.167 22.0793 -296.765 232.053)
(683.604 91.8471 -213.263 239.663 -965.118 -2607.26)
(157.253 -45.1377 132.575 298.981 -1332.66 -2253.41)
(29.6716 -71.1087 270.908 271.217 -1014.48 -1792.09)
(-24.4863 -79.4348 262.403 191.42 -666.419 -1086.91)
(-49.8904 -41.8095 135.017 129.215 -437.551 -579.356)
(-39.9808 7.03148 1.14204 111.023 -408.641 -485.903)
(-11.3274 30.3322 -67.0253 127.489 -555.434 -707.885)
(13.3124 17.223 -59.8306 151.709 -738.096 -973.052)
(21.1696 -13.2406 -12.9362 160.186 -805.036 -1051.08)
(15.9853 -35.5998 33.6957 144.113 -686.726 -914.028)
(4.03161 -42.8174 70.3899 115.429 -457.941 -687.449)
(-9.31279 -30.866 69.851 86.9513 -298.544 -449.879)
(-14.4258 -5.47898 36.3019 71.1161 -248.47 -357.552)
(-11.9941 12.6383 3.93268 71.235 -307.159 -393.651)
(-8.02619 20.7143 -24.6509 88.9637 -428.196 -522.517)
(0.0848924 24.8012 -45.9463 113.249 -534.082 -692.688)
(16.6536 20.0831 -37.4359 130.378 -543.933 -858.491)
(24.6089 -6.89492 37.8603 129.827 -447.216 -916.795)
(6.75745 -27.0277 102.927 112.552 -388.966 -710.258)
(-17.597 -11.5962 87.6184 101.282 -366.345 -533.577)
(-25.6788 22.8512 24.8771 111.484 -473.692 -550.581)
(-13.3984 49.825 -38.7505 141.235 -683.501 -813.408)
(9.12107 42.6309 -54.4603 174.663 -873.642 -1157.89)
(22.5875 3.85308 -15.5703 196.836 -910.939 -1361.15)
(6.89834 -37.654 46.449 206.845 -796.953 -1325.54)
(-34.7656 -43.9161 10.7649 189.088 -680.56 -1037.27)
(-61.3028 -14.9721 -173.201 176.562 -579.84 -873.4)
(-44.2019 7.57668 -392.692 173.182 -520.268 -896.449)
(-44.6869 7.59795 -499.214 123.914 -492.413 -727.953)
(-185.372 -36.2099 -340.521 -61.7248 -358.336 710.983)
(393.814 87.8251 -106.948 -35.4357 -1005.54 -1324.69)
(90.1543 -28.7501 79.7694 71.5254 -1300.17 -1306.75)
(14.6678 -53.8017 132.819 80.2513 -976.354 -1049.45)
(-14.1496 -63.8615 118.81 66.9268 -631.784 -618.86)
(-25.3396 -35.0744 63.3091 54.8369 -408.102 -306.12)
(-19.5361 2.50843 17.0604 47.8995 -384.057 -238.88)
(-7.64869 20.0068 -7.11463 45.1909 -534.95 -355.163)
(1.03333 10.2178 -20.8814 45.2685 -719.847 -500.702)
(4.40276 -11.7183 -32.4655 47.0535 -785.775 -550.848)
(6.27422 -27.3965 -35.132 43.8431 -667.487 -486.986)
(6.2042 -33.7489 -12.3999 36.6193 -440.827 -376.737)
(2.24237 -25.9589 14.4148 33.4021 -280.643 -254.412)
(-1.45812 -6.77048 28.973 28.2161 -233.47 -201.011)
(-4.15896 7.62091 32.2551 24.1993 -295.844 -206.613)
(-6.41388 15.3239 17.6091 28.992 -415.045 -273.198)
(-3.87753 20.8441 -7.2069 36.4296 -516.947 -373.251)
(7.50201 19 -19.2409 35.6722 -527.472 -473.655)
(16.1294 -3.65804 17.4222 26.0125 -437.579 -508.89)
(9.01306 -21.7478 63.9487 28.727 -375.179 -390.201)
(-3.73724 -10.6794 80.3326 34.2642 -348.709 -287.642)
(-11.0262 15.6133 75.523 43.0823 -451.285 -290.392)
(-10.9813 37.2632 49.5943 46.4758 -661.784 -422.243)
(-4.59007 33.8251 13.0363 44.7791 -855.79 -602.909)
(2.65239 5.82083 -15.0246 46.0098 -893.383 -728.114)
(-3.96957 -28.0016 -16.0992 60.5487 -768.689 -747.011)
(-30.1461 -34.2371 -60.1077 76.3038 -639.405 -611.47)
(-50.188 -9.54254 -203.908 86.7112 -531.252 -540.66)
(-40.3296 8.6069 -389.289 88.3501 -470.644 -568.459)
(-62.392 2.17798 -500.578 50.2293 -465.628 -386.628)
(-275.141 -34.025 -381.088 -91.7648 -424.501 1052.77)
(155.079 80.1737 -9.5235 -162.906 -1116.63 -375.695)
(32.0138 -9.26706 47.2311 -26.5457 -1310.83 -619.726)
(1.25824 -30.8079 26.5523 -3.7865 -976.777 -512.242)
(-6.06726 -41.742 7.04853 10.4941 -623.321 -277.135)
(-5.78296 -24.6761 6.39384 20.8501 -394.181 -103.385)
(-3.34282 -1.88967 26.4333 21.5742 -370.509 -57.7102)
(-4.72274 8.03061 35.3672 14.8661 -525.368 -104.476)
(-8.57811 2.05262 6.23615 7.77154 -713.957 -169.784)
(-8.79547 -9.78572 -48.8498 6.30231 -780.172 -200.008)
(-1.5613 -17.5158 -88.8766 4.94796 -662.903 -183.764)
(7.73752 -22.0632 -77.8566 2.35468 -439.196 -150.878)
(11.4389 -18.7591 -30.7537 7.65997 -275.148 -107.835)
(9.04919 -7.36154 20.7701 8.14242 -227.716 -84.184)
(2.38465 1.95398 52.303 4.95876 -292.173 -72.3377)
(-4.7953 8.4663 49.6451 5.63252 -410.52 -96.6061)
(-6.78976 14.8216 23.0926 5.66434 -511.603 -146.292)
(0.221957 15.9438 -4.24923 -4.03242 -528.056 -198.482)
(9.22672 -0.136754 2.75407 -18.9444 -449.465 -216.11)
(10.6781 -14.4034 35.0791 -9.25416 -379.542 -157.143)
(7.15959 -8.60491 75.1946 2.75528 -346.173 -105.592)
(0.521277 7.36401 113.592 12.3774 -442.377 -99.2295)
(-8.97573 21.7956 115.658 8.69202 -654.522 -143.795)
(-15.2267 22.0732 64.0323 -4.12836 -855.727 -214.128)
(-13.1891 6.79028 -13.3983 -12.602 -898.871 -283.11)
(-12.8318 -15.9407 -63.086 -2.60804 -769.187 -331.256)
(-26.2732 -20.7471 -114.357 24.3561 -621.694 -299.786)
(-40.623 -2.01854 -226.129 45.1925 -500.35 -296.167)
(-36.8627 10.1741 -382.29 51.7885 -435.656 -329.57)
(-76.454 -1.70559 -496.987 24.3372 -447.841 -142.015)
(-342.311 -29.6613 -410.792 -88.4049 -484.976 1279.73)
(-28.7643 70.3395 73.2551 -193.384 -1245.93 280.177)
(-15.2506 9.35325 31.1825 -47.7583 -1329.27 -143.185)
(-9.99965 -7.0886 -48.9178 -23.8126 -985.181 -139.69)
(-0.257863 -18.218 -73.3667 -4.3102 -621.794 -36.6608)
(8.59446 -13.0366 -35.5319 12.2967 -384.499 42.8862)
(8.4668 -5.25787 30.469 17.9674 -357.95 71.5879)
(-2.6061 -3.1211 62.1294 14.7625 -513.258 67.4765)
(-15.5519 -5.75082 22.5909 9.15392 -703.262 52.8306)
(-18.4321 -8.10725 -62.2986 6.25461 -770.48 36.2063)
(-7.42946 -8.18505 -128.503 1.379 -657.445 23.1639)
(8.73248 -10.4206 -126.462 -4.88063 -440.405 6.98289)
(18.2396 -11.0636 -65.5112 -0.519008 -274.1 -1.13335)
(16.9904 -7.28346 12.2946 2.22589 -224.928 1.05354)
(7.53492 -3.25013 64.8032 2.04899 -288.982 21.2203)
(-3.2889 1.58595 71.9515 3.31317 -405.545 24.0667)
(-8.76258 8.2336 44.9706 1.44784 -506.61 8.89182)
(-5.12119 12.0476 7.06207 -11.2653 -530.832 -10.2442)
(4.11467 3.01656 -6.69382 -28.1081 -464.857 -16.4932)
(11.8704 -6.90002 15.9083 -18.9149 -388.542 5.14577)
(15.0606 -6.06961 72.4539 -6.33377 -348.376 24.3433)
(8.85103 -0.221113 140.244 4.82944 -436.97 36.9572)
(-7.5039 6.88785 161.065 4.02758 -647.452 47.214)
(-22.8196 10.2144 99.3991 -7.03171 -853.121 46.4476)
(-24.73 6.86721 -11.1856 -18.2407 -903.194 15.3916)
(-19.4106 -4.15252 -94.9934 -15.9143 -774.756 -45.8614)
(-23.1318 -6.51399 -151.759 9.13045 -611.324 -79.2745)
(-32.835 6.41946 -239.205 32.2759 -475.456 -120.469)
(-33.9524 12.5872 -371.397 43.0444 -403.788 -158.962)
(-86.8633 -3.73684 -488.239 25.5154 -427.17 27.5767)
(-388.606 -24.4532 -429.409 -64.6805 -529.092 1412.27)
(-160.619 59.4821 138.16 -162.617 -1354.06 691.985)
(-51.1343 24.8228 26.4902 -25.7226 -1330.39 168.024)
(-18.7598 14.109 -97.344 -7.98696 -980.172 105.782)
(3.52007 3.30468 -125.69 5.37908 -612.648 124.954)
(18.1854 -1.84268 -63.5887 19.6515 -369.666 144.474)
(16.2241 -7.2257 30.7028 28.2141 -338.275 160.518)
(-1.29582 -12.0927 75.9636 31.3789 -489.119 180.126)
(-20.2122 -12.325 29.9148 30.934 -676.42 194.822)
(-24.8731 -7.03575 -73.3412 27.5092 -744.888 186.794)
(-11.4425 -0.691409 -156.073 17.0085 -640.246 157.036)
(9.32756 -0.521087 -160.22 3.59462 -435.076 111.914)
(22.8707 -4.09703 -90.7547 2.28277 -270.89 73.5209)
(22.5495 -6.67212 4.07984 5.00818 -219.952 61.3756)
(11.3372 -7.36462 71.0178 8.38354 -281.006 83.8964)
(-1.97399 -4.39176 85.7503 12.4915 -393.671 102.616)
(-9.9376 2.11404 59.2509 11.7956 -493.782 109.543)
(-8.67341 8.12789 14.8764 -0.347205 -525.264 111.195)
(0.71228 5.42806 -11.8239 -16.9709 -471.432 111.245)
(12.6986 -0.428162 4.99924 -11.7856 -392.152 111.794)
(20.2739 -3.5714 71.8844 -1.52725 -346.991 112.623)
(14.2528 -6.21533 157.352 11.3669 -426.816 129.71)
(-6.57438 -5.44757 189.059 17.8207 -630.134 171.624)
(-27.7269 -0.0147579 121.395 14.444 -834.368 210.912)
(-32.312 6.2843 -8.79354 4.36991 -890.294 203.588)
(-23.7426 5.73195 -113.864 -1.02732 -768.548 138.913)
(-20.5546 6.40701 -173.888 15.5334 -595.655 69.663)
(-26.694 14.8453 -243.267 36.0908 -447.127 1.80151)
(-31.5693 15.8575 -356.186 49.8347 -366.417 -40.0857)
(-93.9765 -4.10418 -473.938 41.3039 -395.458 140.275)
(-416.864 -19.2634 -437.648 -29.4026 -550.023 1469.72)
(-247.257 48.6205 184.465 -97.0662 -1418.31 912.368)
(-76.2302 36.2408 28.3696 17.04 -1302.43 355.216)
(-24.9459 31.1672 -123.766 24.6433 -952.008 257.929)
(5.64729 21.0863 -154.605 27.7728 -588.221 227.868)
(23.7212 7.95117 -79.6611 36.2045 -343.995 211.964)
(20.5306 -7.79626 28.6491 46.2148 -306.752 219.127)
(-0.741183 -18.4058 79.9954 55.9697 -448.437 249.882)
(-23.0293 -17.3296 30.1714 61.4573 -628.79 279.31)
(-28.6812 -6.70007 -82.6311 57.8386 -698.58 276.046)
(-13.8514 4.40814 -174.147 41.4273 -606.397 237.719)
(9.66616 6.78363 -181.941 20.0606 -418.411 177.424)
(25.717 1.4645 -107.973 11.3851 -261.564 123.344)
(26.0874 -5.69793 -3.46827 12.6974 -209.763 102.645)
(13.9366 -10.1441 72.4156 19.3318 -265.59 123.939)
(-0.892889 -8.99713 92.632 27.0558 -371.909 150.587)
(-10.4726 -2.96317 67.1952 28.9886 -469.3 170.327)
(-10.7126 4.6375 19.7061 19.2302 -506.348 183.622)
(-1.23687 6.95608 -13.6912 3.87271 -463.445 186.531)
(13.2594 4.47777 0.475564 4.13196 -385.045 176.744)
(23.293 -1.37653 73.0155 11.1303 -337.171 168.902)
(17.2418 -10.2599 167.049 25.7526 -407.129 189.233)
(-6.12479 -14.3715 203.514 40.5568 -597.497 247.129)
(-30.4733 -7.83038 132.854 46.5602 -793.785 306.347)
(-36.5938 5.25838 -6.53278 39.3167 -853.456 312.529)
(-26.0704 12.9873 -122.461 27.4188 -742.549 249.819)
(-18.3026 16.9375 -183.264 33.3556 -567.844 164.502)
(-21.8723 22.6375 -239.009 48.8564 -410.148 83.698)
(-29.6146 19.8217 -336.358 64.3654 -319.224 40.7904)
(-98.3485 -3.11219 -453.95 63.8996 -348.977 211.495)
(-430.396 -14.5309 -436.802 11.3478 -544.409 1469.96)
(-297.246 38.5878 213.618 -15.8995 -1428.68 991.965)
(-91.9024 43.6559 33.3665 65.878 -1242.92 453.922)
(-28.7315 43.7239 -133.272 61.8104 -898.918 344.857)
(6.53084 34.6518 -165.08 54.9077 -545.89 289.183)
(26.0532 15.9703 -85.9002 57.1253 -304.747 254.628)
(22.0868 -7.18135 25.5952 67.6786 -261.239 256.015)
(-0.861169 -22.1525 77.1643 82.9223 -390.083 290.118)
(-24.5038 -20.7795 25.2399 93.5647 -560.055 324.83)
(-30.4802 -7.0905 -90.8164 89.7348 -631.291 323.51)
(-14.9728 7.0571 -185.32 68.0378 -555.029 281.513)
(9.87844 11.2821 -194.617 39.3507 -388.894 214.938)
(27.2219 5.37117 -118.861 23.4137 -244.293 154.719)
(28.0382 -4.52317 -10.0845 22.6106 -193.014 129.86)
(15.5298 -11.5976 70.4339 31.8727 -241.912 148.052)
(-0.06092 -12.0984 94.2572 43.1422 -339.604 177.317)
(-10.5291 -6.78692 70.1873 48.121 -432.323 203.27)
(-11.5703 1.74609 22.1474 41.3283 -472.912 221.899)
(-2.05542 7.62578 -13.3279 27.5323 -439.616 225.631)
(13.637 7.75315 0.464253 23.3805 -365.335 212.037)
(24.6654 0.439628 75.3275 27.3361 -316.763 201.688)
(18.4063 -12.3681 171.401 43.6113 -375.814 224.365)
(-6.0635 -19.8385 208.225 66.0943 -548.203 288.295)
(-31.6249 -13.1156 136.595 80.8384 -730.841 354.615)
(-38.3455 3.94924 -4.6346 76.7396 -792.062 367.415)
(-26.7327 17.5363 -123.611 59.8873 -694.882 309.282)
(-16.1303 24.7437 -182.665 55.6733 -525.367 220.22)
(-17.9757 29.454 -227.435 65.3594 -362.436 136.173)
(-27.9717 24.2525 -311.833 81.6756 -260.841 94.8298)
(-100.593 -1.03543 -428.481 88.4063 -286.901 253.977)
(-432.586 -10.3823 -428.421 53.2395 -511.323 1429.26)
(-319.574 29.9368 228.658 67.5949 -1383.67 976.112)
(-99.9528 47.6346 39.6637 111.977 -1154.68 492.94)
(-30.4807 52.2112 -130.235 96.3542 -823.53 388.428)
(6.52332 44.3151 -161.666 81.719 -486.138 322.574)
(25.9987 22.2236 -84.3944 78.9859 -251.235 280.279)
(21.5733 -5.67662 22.5234 89.5984 -201.361 278.337)
(-1.55995 -23.7283 69.9613 108.751 -314.927 311.348)
(-25.0938 -22.887 16.7464 123.116 -472.24 345.632)
(-30.8631 -8.12109 -98.4699 118.882 -545.217 344.254)
(-15.1296 7.50164 -191.942 92.8849 -487.588 301.214)
(10.0711 13.1752 -201.028 58.1757 -347.009 233.624)
(27.8133 7.65587 -125.064 35.9976 -218.718 173.016)
(28.8351 -3.28043 -15.6305 32.8897 -169.499 147.102)
(16.3276 -11.8779 66.3459 44.098 -210.269 161.483)
(0.523286 -13.7805 92.1688 58.4147 -297.447 190.083)
(-10.2617 -9.38643 69.532 66.2286 -383.735 217.841)
(-11.5736 -0.54958 22.7458 62.2325 -426.02 237.767)
(-2.0581 7.56101 -11.638 49.8909 -401.191 241.251)
(13.9049 9.60345 3.33983 42.4327 -333.304 227.454)
(24.9051 1.92183 78.37 44.1144 -285.433 218.132)
(18.3042 -12.7633 172.227 61.9214 -332.592 242.513)
(-6.29823 -22.2543 206.505 90.6209 -483.132 306.686)
(-31.7067 -16.1386 135.084 112.391 -647.797 372.592)
(-38.3066 2.4655 -3.26752 111.001 -708.77 387.652)
(-26.0848 19.6816 -119.826 90.62 -627.192 334.953)
(-13.8305 29.9594 -174.7 77.965 -468.446 249.067)
(-14.6305 35.1651 -209.665 82.1606 -303.926 168.168)
(-26.5317 28.9231 -282.756 98.6944 -191.655 130.838)
(-101.283 1.90158 -398.022 111.803 -210.081 277.932)
(-426.64 -6.76182 -414.103 93.004 -451.624 1362.28)
(-322.781 22.9191 233.52 144.598 -1287.26 903.496)
(-102.327 48.9233 46.9211 150.642 -1043.07 494.515)
(-30.6733 57.4358 -117.992 124.696 -730.421 404.745)
(5.88335 50.769 -148.152 105.256 -411.151 338.434)
(24.2579 26.9256 -76.992 99.4176 -184.153 295.257)
(19.5868 -3.58127 20.1131 109.884 -127.927 291.865)
(-2.73796 -23.6372 60.3494 131.366 -224.941 321.576)
(-25.1783 -23.9414 6.0037 147.915 -368.471 352.287)
(-30.3391 -9.66807 -106.055 143.041 -443.692 349.455)
(-14.6142 6.14115 -195.965 113.791 -406.688 306.476)
(10.3227 12.8826 -203.529 74.5715 -294.353 240.533)
(27.8602 8.51333 -128.04 47.5397 -185.446 182.564)
(28.866 -2.06395 -20.0673 42.2958 -139.74 157.56)
(16.5305 -11.2015 61.2047 54.8547 -171.59 168.206)
(0.870183 -14.2458 87.6932 71.5488 -246.827 194.377)
(-9.80863 -10.923 66.3505 81.6565 -325.312 221.224)
(-11.0105 -2.33476 21.945 79.9114 -367.87 240.071)
(-1.5137 6.92665 -9.35127 68.7588 -350.631 242.803)
(14.1256 10.3441 7.81637 59.175 -290.475 230.555)
(24.4471 3.16449 81.8082 59.4897 -244.01 224.011)
(17.4076 -11.7648 171.022 78.6583 -278.368 249.687)
(-6.75002 -22.22 201.034 111.902 -404.379 311.186)
(-31.1598 -17.3366 130.314 138.686 -548.199 372.816)
(-37.1096 0.880062 -2.54859 139.26 -607.701 387.537)
(-24.4539 19.889 -113.143 116.496 -542.873 340.057)
(-11.2553 32.9549 -161.606 97.4572 -398.919 260.655)
(-11.5286 39.7825 -186.805 97.0742 -235.802 186.756)
(-25.2021 33.6435 -249.448 113.605 -113.014 155.542)
(-100.9 5.51056 -363.238 132.271 -120.282 291.283)
(-415.408 -3.5458 -395.359 128.045 -367.676 1281.83)
(-314.445 17.5267 232.386 209.486 -1146.78 805.903)
(-100.896 48.2431 55.869 179.862 -914.28 475.122)
(-29.8304 60.2751 -98.8348 145.537 -624.625 405.125)
(4.77122 54.7967 -127.488 123.997 -323.898 344.293)
(21.3841 30.3652 -65.2346 116.819 -105.107 304.475)
(16.6145 -1.15765 18.7754 127.079 -42.5559 301.076)
(-4.29822 -22.3733 49.7766 149.544 -122.682 326.684)
(-25.0455 -24.2293 -5.98553 166.928 -252.263 352.343)
(-29.3131 -11.5882 -113.907 161.228 -330.416 347.086)
(-13.6704 3.43102 -198.894 129.703 -315.424 304.292)
(10.6825 10.9095 -203.974 87.4534 -233.093 240.888)
(27.6535 8.21607 -128.996 57.0155 -145.695 186.697)
(28.4519 -0.930299 -23.4288 50.0397 -104.71 163.613)
(16.3147 -9.79915 55.8296 63.4805 -127.143 171.118)
(0.994901 -13.7456 81.9024 81.8538 -189.457 194.202)
(-9.28548 -11.6113 61.544 93.5855 -259.212 218.667)
(-10.1151 -3.71835 20.084 93.4259 -301.109 235.185)
(-0.63306 5.8895 -7.01548 83.1741 -290.83 236.952)
(14.3486 10.2968 12.9504 72.4666 -238.994 226.914)
(23.6308 4.25969 85.4206 72.2104 -194.052 223.805)
(16.0849 -9.71883 168.938 92.5104 -214.804 250.588)
(-7.35635 -20.3731 193.841 128.724 -314.637 308.386)
(-30.3256 -17.1778 123.791 158.631 -436.001 364.255)
(-35.2533 -0.755936 -2.54725 160.388 -493.381 377.188)
(-22.1194 18.6491 -105.104 136.091 -445.974 334.091)
(-8.31875 34.1785 -145.183 112.594 -319.491 262.224)
(-8.4409 43.3981 -159.894 108.784 -159.971 197.338)
(-23.905 38.2707 -212.357 125.386 -26.7466 173.887)
(-99.8151 9.6182 -324.851 148.73 -19.7487 299.914)
(-401.246 -0.604463 -373.492 156.279 -263.213 1198.55)
(-300.891 13.5582 229.175 258.89 -971.66 708.344)
(-97.3006 46.1924 67.8066 199.225 -774.381 446.427)
(-28.4509 61.4945 -74.2056 158.861 -510.859 397.123)
(3.26631 57.0996 -101.862 137.3 -227.587 345.298)
(17.7886 32.8202 -50.3648 130.118 -16.3066 311.499)
(13.0361 1.38302 18.7029 140.141 52.5638 309.216)
(-6.14834 -20.3584 39.2464 162.557 -11.0096 330.754)
(-24.8954 -23.9871 -18.4829 179.747 -127.174 350.913)
(-28.0835 -13.7245 -122.221 173.142 -209.063 342.549)
(-12.4898 -0.172936 -201.779 140.221 -216.989 299.484)
(11.1715 7.76908 -203.714 96.286 -165.651 238.374)
(27.4021 7.06412 -128.866 63.8086 -101.048 187.838)
(27.84 0.0967883 -25.7952 55.644 -65.6475 166.935)
(15.8256 -7.89005 50.816 69.6146 -78.3638 172.222)
(0.91545 -12.5367 75.6122 89.0075 -127.167 192.341)
(-8.78162 -11.6703 55.7991 101.69 -187.698 213.824)
(-9.06542 -4.8018 17.4143 102.484 -228.439 227.47)
(0.427731 4.5962 -5.01177 92.8844 -224.697 228.192)
(14.6091 9.73337 18.0922 81.7921 -181.255 220.43)
(22.7019 5.26543 89.0664 81.5302 -137.547 220.81)
(14.6044 -6.96407 166.794 102.663 -144.025 248.698)
(-8.06779 -17.3031 186.358 140.491 -216.843 302.941)
(-29.4471 -16.0894 116.592 171.939 -315.122 353.025)
(-33.1046 -2.40266 -3.28653 174.196 -370.207 363.44)
(-19.3095 16.4055 -96.7997 148.974 -340.615 323.567)
(-4.99212 34.0661 -126.821 122.623 -233.245 258.964)
(-5.21475 46.1395 -129.872 116.548 -78.7231 203.828)
(-22.5707 42.7029 -172.005 133.478 65.1226 189.309)
(-98.2749 14.05 -283.515 160.539 89.0503 307.885)
(-385.881 2.18227 -349.486 176.152 -143.133 1120.32)
(-287.034 10.6877 227.171 291.044 -772.481 629.306)
(-92.8629 43.2103 84.1123 209.171 -628.89 416.155)
(-26.9648 61.6569 -44.9898 165.254 -393.205 385.4)
(1.39561 58.2116 -72.8751 144.991 -125.399 344.63)
(13.7652 34.511 -33.3753 138.583 79.6467 318.589)
(9.13867 3.87944 19.9269 148.301 154.826 318.317)
(-8.19884 -17.9181 29.4175 169.924 107.032 336.293)
(-24.8483 -23.3783 -30.9406 186.227 3.31227 351.127)
(-26.8521 -15.9035 -131.042 178.777 -83.1528 339.183)
(-11.2155 -4.23779 -205.25 145.273 -114.514 295.088)
(11.7854 3.94634 -203.633 100.864 -94.5184 235.36)
(27.2373 5.35799 -128.314 67.5927 -53.2757 187.568)
(27.2039 1.01831 -27.2669 58.8392 -23.9327 168.571)
(15.1757 -5.67189 46.5586 73.0678 -26.7568 172.758)
(0.65268 -10.8586 69.4029 92.8799 -61.802 190.556)
(-8.35909 -11.2957 49.6146 105.902 -112.993 209.036)
(-7.98865 -5.66509 14.1247 107.129 -152.441 219.693)
(1.5566 3.16494 -3.58435 97.9966 -154.968 219.339)
(14.9247 8.85338 22.8116 87.0078 -119.684 213.616)
(21.822 6.1912 92.6364 87.0529 -76.7082 217.237)
(13.1489 -3.81914 165.103 108.647 -68.4201 246.348)
(-8.84185 -13.5205 179.511 146.953 -113.996 297.848)
(-28.6779 -14.4292 109.44 178.69 -189.264 342.963)
(-30.914 -4.02237 -4.74475 180.918 -242.252 350.566)
(-16.2058 13.5322 -88.9523 155.228 -230.717 312.641)
(-1.29422 32.998 -107.558 127.288 -143.362 254.319)
(-1.76213 48.1368 -97.589 119.985 5.47705 208.833)
(-21.1294 46.862 -128.933 137.54 160.491 203.965)
(-96.3948 18.6233 -239.717 167.288 203.552 317.612)
(-370.319 4.92689 -323.937 186.727 -13.089 1051.78)
(-276.314 8.52412 228.776 305.33 -560.389 581.037)
(-88.5457 39.5834 105.838 210.52 -482.634 388.799)
(-25.7008 61.103 -11.8112 165.473 -275.087 372.363)
(-0.83572 58.4767 -41.726 147.1 -20.3933 343.808)
(9.52082 35.581 -15.0743 141.701 179.873 326.722)
(5.13861 6.20829 22.3643 150.962 261.294 329.179)
(-10.359 -15.2856 20.7039 171.273 228.233 344.346)
(-24.9555 -22.4894 -42.9216 186.282 135.756 354.415)
(-25.7382 -17.9293 -140.244 178.2 43.9367 338.606)
(-9.94927 -8.35179 -209.55 144.929 -11.0169 292.638)
(12.4961 -0.107524 -204.196 101.179 -22.1707 233.074)
(27.22 3.38488 -127.748 68.2492 -4.22432 186.695)
(26.648 1.84773 -27.9466 59.4945 18.987 169)
(14.4453 -3.32217 43.2767 73.7417 26.1397 173.303)
(0.231531 -8.92592 63.6482 93.4252 4.80627 189.729)
(-8.05288 -10.6488 43.3378 106.265 -37.2462 205.541)
(-6.96966 -6.3611 10.3651 107.539 -75.5238 213.334)
(2.67243 1.68864 -2.87072 98.7653 -84.16 211.894)
(15.2925 7.78711 26.8233 88.1755 -56.6386 207.84)
(21.0814 6.99711 96.0017 88.6243 -13.8403 214.291)
(11.8334 -0.586146 164.096 110.23 9.4906 244.772)
(-9.63574 -9.46163 173.805 148.031 -9.08207 294.65)
(-28.0924 -12.4842 102.78 179.069 -61.9053 336.039)
(-28.8348 -5.56773 -6.8529 180.911 -113.246 340.802)
(-12.9524 10.3432 -81.984 155.155 -119.923 303.574)
(2.71611 31.2883 -88.1474 126.631 -52.9663 250.227)
(1.95108 49.4917 -63.8074 118.929 90.0896 213.79)
(-19.5055 50.6593 -83.674 137.287 257.18 218.907)
(-94.1505 23.1398 -193.743 168.644 321.117 330.016)
(-354.781 7.74278 -297.022 187.698 120.984 994.119)
(-270.705 6.65036 235.327 302.042 -346.531 569.805)
(-84.941 35.471 133.417 204.204 -339.761 366.144)
(-24.8694 59.9735 24.7276 160.219 -159.374 358.588)
(-3.41866 58.0645 -9.37854 143.711 84.473 342.857)
(5.20508 36.0952 3.84847 139.101 281.265 335.557)
(1.203 8.26642 25.8455 147.655 368.736 341.296)
(-12.5309 -12.6235 13.3495 166.284 349.199 354.502)
(-25.207 -21.3397 -54.032 179.804 266.685 360.607)
(-24.7911 -19.574 -149.511 171.461 168.892 340.879)
(-8.76027 -12.1066 -214.552 139.306 90.5702 292.327)
(13.2526 -3.9646 -205.473 97.3497 48.9828 231.708)
(27.3459 1.41194 -127.338 65.818 44.2645 185.3)
(26.2121 2.59479 -27.9331 57.5833 61.6363 168.161)
(13.6862 -1.00821 41.0315 71.5854 78.7637 173.807)
(-0.316435 -6.92842 58.5402 90.6252 70.8324 189.931)
(-7.87116 -9.85429 37.1976 102.856 37.465 203.59)
(-6.059 -6.91268 6.27061 103.93 0.0600109 208.788)
(3.71302 0.246501 -2.92154 95.4873 -14.5809 206.283)
(15.686 6.61298 29.9317 85.4686 5.63621 203.491)
(20.5091 7.60163 98.972 86.2649 48.749 212.242)
(10.7206 2.43642 163.73 107.356 87.1406 244.143)
(-10.3991 -5.51351 169.382 143.723 94.9357 293.545)
(-27.6925 -10.4825 96.8358 173.236 63.6293 332.584)
(-26.9379 -6.96615 -9.48105 174.501 13.3426 334.658)
(-9.66608 7.12389 -76.0631 149.136 -11.6077 297.031)
(6.94085 29.1927 -69.1239 120.881 34.9481 247.298)
(5.90851 50.2442 -29.2481 113.358 172.545 219.035)
(-17.6161 53.9436 -36.7976 132.422 352.854 234.138)
(-91.3717 27.3706 -145.709 164.249 438.942 344.599)
(-338.69 10.757 -268.495 179.307 253.256 945.096)
(-270.762 4.65466 247.025 282.253 -141.577 596.216)
(-82.2816 30.9349 166.496 191.141 -203.816 347.646)
(-24.5573 58.2496 63.8684 150.062 -48.557 343.033)
(-6.32204 57.0027 23.3045 134.927 186.277 340.347)
(0.932978 36.0486 22.7609 130.546 380.505 343.341)
(-2.53306 9.95415 30.1212 138.055 473.643 352.714)
(-14.6032 -10.0502 7.47371 154.724 466.315 364.771)
(-25.5346 -19.8981 -63.8705 166.695 392.507 367.887)
(-23.9979 -20.5718 -158.3 158.601 288.378 344.507)
(-7.69182 -15.0761 -219.755 128.564 187.37 293.041)
(13.9764 -7.20445 -207.161 89.6047 116.623 230.467)
(27.546 -0.31702 -127.032 60.4822 90.4073 182.769)
(25.8752 3.24861 -27.3327 53.178 102.54 165.452)
(12.9253 1.09902 39.7301 66.5918 129.522 173.582)
(-0.948616 -5.03683 54.1093 84.4809 134.432 190.427)
(-7.79435 -9.00071 31.3358 95.7694 109.1 202.492)
(-5.27876 -7.31014 1.98601 96.5278 72.1773 205.459)
(4.62566 -1.08166 -3.70568 88.4751 51.6283 201.977)
(16.0508 5.38016 31.9985 79.142 65.0131 200.065)
(20.0774 7.89276 101.265 80.1424 108.804 210.457)
(9.82972 4.93844 163.687 100.116 161.965 243.579)
(-11.0662 -2.04536 166.047 134.085 195.091 293.402)
(-27.4078 -8.60956 91.6542 161.3 184.068 331.365)
(-25.2205 -8.10265 -12.4094 161.954 134.192 331.042)
(-6.4473 4.16934 -71.1094 137.585 91.0742 292.231)
(11.2332 26.9272 -50.8384 110.424 117.556 244.911)
(10.034 50.3425 5.34172 103.4 250.272 223.832)
(-15.3746 56.4435 10.9905 122.652 444.932 248.55)
(-87.7303 31.0312 -95.671 153.702 553.905 359.375)
(-320.685 14.1203 -237.718 162.225 378.245 899.255)
(-275.724 2.15698 262.979 247.762 44.6995 655.609)
(-80.4716 25.9716 203.861 172.232 -77.8638 330.675)
(-24.7325 55.8004 104.576 135.484 55.0877 323.1)
(-9.48198 55.2163 55.4581 120.94 282.07 333.29)
(-3.19916 35.3804 41.0334 116.027 474.082 346.71)
(-5.95382 11.1666 34.8559 122.094 572.261 359.797)
(-16.4446 -7.66022 3.09462 136.568 575.752 371.361)
(-25.8109 -18.0991 -71.9936 146.993 509.472 372.582)
(-23.2849 -20.6192 -165.806 139.765 398.991 346.297)
(-6.76723 -16.8044 -224.248 112.978 276.539 292.303)
(14.555 -9.40389 -208.573 78.3191 178.555 227.58)
(27.6834 -1.58388 -126.581 52.5867 132.538 177.801)
(25.5572 3.76583 -26.2853 46.4776 140.259 159.693)
(12.1718 2.81483 39.1155 58.8357 176.791 171.239)
(-1.60528 -3.40689 50.2382 75.0563 193.722 189.597)
(-7.77287 -8.14288 25.8357 85.1549 175.63 200.567)