/*--------------------------------*- C++ -*----------------------------------*\
| =========                 |                                                 |
| \\      /  F ield         | OpenFOAM: The Open Source CFD Toolbox           |
|  \\    /   O peration     | Version:  2106                                  |
|   \\  /    A nd           | Website:  www.openfoam.com                      |
|    \\/     M anipulation  |                                                 |
\*---------------------------------------------------------------------------*/
FoamFile
{
    version     2.0;
    format      ascii;
    arch        "LSB;label=32;scalar=64";
    class       volSymmTensorField;
    location    "943";
    object      sigma;
}
// * * * * * * * * * * * * * * * * * * * * * * * * * * * * * * * * * * * * * //

dimensions      [1 -1 -2 0 0 0 0];

internalField   nonuniform List<symmTensor> 
9000
(
(-1.55998e+12 3.09778e+10 -3.40082e+11 -8.32066e+11 -5.40114e+11 -9.05622e+12)
(-2.57646e+12 -7.59274e+09 2.63921e+11 -8.73097e+11 -6.29601e+11 -8.20887e+12)
(-2.25393e+12 -4.38239e+09 5.90369e+11 -7.02007e+11 -5.10138e+11 -6.57055e+12)
(-1.53235e+12 -3.82e+09 5.92601e+11 -4.46319e+11 -3.37196e+11 -4.16239e+12)
(-9.93561e+11 -1.94982e+09 2.93021e+11 -2.64115e+11 -2.15793e+11 -2.44156e+12)
(-8.83566e+11 9.33009e+08 -6.05948e+10 -2.3834e+11 -1.94426e+11 -2.19296e+12)
(-1.13252e+12 2.23373e+09 -2.41254e+11 -3.40258e+11 -2.56276e+11 -3.12684e+12)
(-1.43826e+12 9.32349e+08 -1.72353e+11 -4.58003e+11 -3.3329e+11 -4.20613e+12)
(-1.51105e+12 -1.55483e+09 4.07551e+10 -4.86836e+11 -3.58285e+11 -4.47654e+12)
(-1.30266e+12 -3.3638e+09 2.24074e+11 -4.1205e+11 -3.09253e+11 -3.80631e+12)
(-9.68712e+11 -3.54989e+09 2.83253e+11 -2.91944e+11 -2.20987e+11 -2.7197e+12)
(-6.60471e+11 -2.23959e+09 1.96253e+11 -1.85096e+11 -1.48227e+11 -1.73087e+12)
(-5.58052e+11 -7.23238e+07 3.38572e+10 -1.53436e+11 -1.22211e+11 -1.41685e+12)
(-6.36181e+11 1.16392e+09 -8.98639e+10 -1.8486e+11 -1.4198e+11 -1.69093e+12)
(-8.12733e+11 1.28908e+09 -1.45695e+11 -2.46835e+11 -1.90376e+11 -2.26052e+12)
(-1.00668e+12 1.37442e+09 -1.40241e+11 -3.12986e+11 -2.39526e+11 -2.88466e+12)
(-1.15202e+12 1.04378e+09 -6.40463e+10 -3.63302e+11 -2.62317e+11 -3.3814e+12)
(-1.17595e+12 -3.73214e+08 9.43823e+10 -3.68864e+11 -2.45284e+11 -3.45534e+12)
(-9.73009e+11 -1.62348e+09 1.82911e+11 -2.92388e+11 -2.058e+11 -2.73629e+12)
(-8.24035e+11 -6.34229e+08 7.48671e+10 -2.30887e+11 -1.81322e+11 -2.14741e+12)
(-9.03567e+11 2.01263e+09 -1.42076e+11 -2.54096e+11 -2.13642e+11 -2.34578e+12)
(-1.27034e+12 4.03198e+09 -2.94707e+11 -3.84343e+11 -3.01935e+11 -3.52832e+12)
(-1.70046e+12 2.92071e+09 -2.35571e+11 -5.3906e+11 -3.93985e+11 -4.94817e+12)
(-1.89386e+12 -1.20714e+09 -6.27719e+09 -6.04364e+11 -4.28362e+11 -5.581e+12)
(-1.75984e+12 -4.09268e+09 2.09738e+11 -5.44833e+11 -3.96214e+11 -5.08029e+12)
(-1.42646e+12 -3.75922e+09 2.02535e+11 -4.18326e+11 -3.30434e+11 -3.89934e+12)
(-1.22311e+12 -1.39908e+09 -2.78894e+10 -3.45799e+11 -2.8317e+11 -3.2105e+12)
(-1.1706e+12 2.27883e+09 -2.5069e+11 -3.41152e+11 -2.66262e+11 -3.18291e+12)
(-1.05105e+12 1.17898e+10 -2.80221e+11 -3.32189e+11 -2.37433e+11 -3.01774e+12)
(-2.34822e+11 -1.05042e+09 -1.03897e+11 -1.22001e+11 -9.50807e+10 -1.26528e+12)
(-1.12512e+12 5.30483e+10 -2.84751e+11 -9.31534e+11 -7.31262e+11 -6.38631e+12)
(-1.82664e+12 -3.01173e+10 2.00365e+11 -9.31118e+11 -9.56345e+11 -5.62539e+12)
(-1.62945e+12 -4.15539e+10 4.31139e+11 -7.52417e+11 -7.58002e+11 -4.5158e+12)
(-1.09664e+12 -4.32051e+10 4.31437e+11 -4.5957e+11 -5.05048e+11 -2.82686e+12)
(-6.95343e+11 -2.16323e+10 2.15362e+11 -2.50043e+11 -3.31586e+11 -1.61498e+12)
(-6.07605e+11 6.55433e+09 -3.51761e+10 -2.17777e+11 -3.01651e+11 -1.42799e+12)
(-7.78642e+11 2.03405e+10 -1.62463e+11 -3.25758e+11 -3.94245e+11 -2.05037e+12)
(-9.9123e+11 1.22092e+10 -1.18254e+11 -4.50026e+11 -5.12412e+11 -2.77113e+12)
(-1.04152e+12 -7.15804e+09 2.30228e+10 -4.79819e+11 -5.55831e+11 -2.95218e+12)
(-9.01297e+11 -2.18186e+10 1.45767e+11 -4.06958e+11 -4.80323e+11 -2.52111e+12)
(-6.8209e+11 -2.51159e+10 1.92349e+11 -2.95111e+11 -3.35651e+11 -1.83078e+12)
(-4.66034e+11 -1.64152e+10 1.40189e+11 -1.8376e+11 -2.26735e+11 -1.1672e+12)
(-3.92019e+11 -1.15338e+09 3.16194e+10 -1.50138e+11 -1.8707e+11 -9.47452e+11)
(-4.40282e+11 9.1074e+09 -5.2538e+10 -1.78205e+11 -2.19126e+11 -1.11286e+12)
(-5.59801e+11 1.25888e+10 -9.42746e+10 -2.37807e+11 -2.98472e+11 -1.48192e+12)
(-6.98388e+11 1.28145e+10 -9.85507e+10 -3.07615e+11 -3.74558e+11 -1.90697e+12)
(-8.14969e+11 8.21275e+09 -5.23933e+10 -3.74582e+11 -3.94393e+11 -2.28239e+12)
(-8.53459e+11 -5.4588e+09 6.5908e+10 -4.02058e+11 -3.43832e+11 -2.38833e+12)
(-6.96841e+11 -1.45019e+10 1.40239e+11 -3.0724e+11 -2.97432e+11 -1.87093e+12)
(-5.8054e+11 -4.89484e+09 7.09823e+10 -2.28337e+11 -2.75296e+11 -1.44072e+12)
(-6.22252e+11 1.54657e+10 -7.81117e+10 -2.37031e+11 -3.40179e+11 -1.53589e+12)
(-8.73041e+11 3.02907e+10 -1.89504e+11 -3.67481e+11 -4.7661e+11 -2.3095e+12)
(-1.1787e+12 2.38719e+10 -1.59018e+11 -5.35043e+11 -6.06246e+11 -3.27071e+12)
(-1.3312e+12 -8.14508e+08 -8.2023e+09 -6.18799e+11 -6.44354e+11 -3.73935e+12)
(-1.26074e+12 -2.29077e+10 1.4302e+11 -5.71592e+11 -5.90527e+11 -3.45828e+12)
(-1.02184e+12 -2.44705e+10 1.30048e+11 -4.27535e+11 -5.09137e+11 -2.63924e+12)
(-8.82645e+11 -9.45957e+09 -6.25216e+10 -3.50809e+11 -4.40796e+11 -2.16964e+12)
(-8.55071e+11 3.21582e+09 -2.62405e+11 -3.57232e+11 -4.04607e+11 -2.17474e+12)
(-7.5812e+11 1.06143e+10 -3.19533e+11 -3.4545e+11 -3.59215e+11 -2.02194e+12)
(-5.79816e+10 -1.73744e+10 -1.56421e+11 3.24631e+10 -1.5926e+11 -3.79938e+11)
(-8.26811e+11 6.12059e+10 -2.17863e+11 -1.00711e+12 -6.96582e+11 -4.41286e+12)
(-1.384e+12 -3.58853e+10 1.40006e+11 -1.03052e+12 -9.62728e+11 -3.93926e+12)
(-1.24147e+12 -5.19014e+10 2.98234e+11 -8.34775e+11 -7.4748e+11 -3.17342e+12)
(-8.24359e+11 -5.57601e+10 2.9583e+11 -5.06104e+11 -4.96435e+11 -1.96739e+12)
(-5.07947e+11 -2.85115e+10 1.49514e+11 -2.6956e+11 -3.27825e+11 -1.09785e+12)
(-4.34803e+11 6.90515e+09 -1.48433e+10 -2.30055e+11 -3.02114e+11 -9.49679e+11)
(-5.61034e+11 2.40379e+10 -9.82125e+10 -3.45837e+11 -4.00766e+11 -1.36389e+12)
(-7.21e+11 1.41844e+10 -7.53168e+10 -4.81164e+11 -5.2567e+11 -1.85053e+12)
(-7.61433e+11 -9.06159e+09 6.40986e+09 -5.15679e+11 -5.72246e+11 -1.97927e+12)
(-6.60897e+11 -2.63872e+10 7.96313e+10 -4.39588e+11 -4.91575e+11 -1.70256e+12)
(-5.04101e+11 -3.10176e+10 1.15065e+11 -3.2123e+11 -3.35063e+11 -1.25785e+12)
(-3.44202e+11 -2.12267e+10 9.12597e+10 -2.01166e+11 -2.23475e+11 -8.10743e+11)
(-2.87664e+11 -2.48161e+09 2.87044e+10 -1.63524e+11 -1.85283e+11 -6.53385e+11)
(-3.19363e+11 1.04437e+10 -2.21925e+10 -1.91645e+11 -2.22257e+11 -7.48257e+11)
(-4.08083e+11 1.54253e+10 -5.22053e+10 -2.56169e+11 -3.06471e+11 -9.92856e+11)
(-5.14934e+11 1.69045e+10 -6.26851e+10 -3.33691e+11 -3.83381e+11 -1.29033e+12)
(-6.07927e+11 1.22572e+10 -3.90514e+10 -4.08923e+11 -3.95052e+11 -1.56799e+12)
(-6.42095e+11 -6.0325e+09 4.367e+10 -4.40069e+11 -3.31022e+11 -1.66252e+12)
(-5.18527e+11 -1.8911e+10 1.02656e+11 -3.35565e+11 -2.89027e+11 -1.29587e+12)
(-4.26379e+11 -7.21661e+09 6.53822e+10 -2.48403e+11 -2.71927e+11 -9.89237e+11)
(-4.52316e+11 1.80352e+10 -2.61865e+10 -2.56485e+11 -3.45495e+11 -1.03733e+12)
(-6.35862e+11 3.70755e+10 -1.01095e+11 -3.96012e+11 -4.89662e+11 -1.54663e+12)
(-8.64214e+11 3.03742e+10 -9.34117e+10 -5.77087e+11 -6.21536e+11 -2.19539e+12)
(-9.86459e+11 8.03035e+08 -9.91594e+09 -6.71837e+11 -6.52321e+11 -2.53945e+12)
(-9.51916e+11 -2.80073e+10 8.35676e+10 -6.28524e+11 -5.84855e+11 -2.40031e+12)
(-7.7956e+11 -3.12623e+10 6.50965e+10 -4.75265e+11 -5.06131e+11 -1.84924e+12)
(-6.82624e+11 -1.15394e+10 -9.20972e+10 -3.93093e+11 -4.3718e+11 -1.53501e+12)
(-6.66809e+11 4.39733e+09 -2.66667e+11 -4.00077e+11 -3.96651e+11 -1.54968e+12)
(-5.8271e+11 8.87207e+09 -3.34155e+11 -3.73908e+11 -3.60779e+11 -1.38062e+12)
(5.99225e+10 -2.33775e+10 -1.97298e+11 1.24712e+11 -2.01784e+11 2.67482e+11)
(-5.52634e+11 6.2451e+10 -1.45007e+11 -8.5449e+11 -6.56228e+11 -2.79024e+12)
(-9.78936e+11 -3.06912e+10 9.0144e+10 -8.82569e+11 -9.06134e+11 -2.61806e+12)
(-8.80751e+11 -4.835e+10 1.84203e+11 -7.16513e+11 -6.89793e+11 -2.11945e+12)
(-5.72331e+11 -5.40114e+10 1.7842e+11 -4.25527e+11 -4.53129e+11 -1.29472e+12)
(-3.35791e+11 -2.84282e+10 9.18041e+10 -2.14009e+11 -2.97511e+11 -6.95799e+11)
(-2.77577e+11 4.78102e+09 7.76523e+08 -1.74902e+11 -2.77853e+11 -5.80779e+11)
(-3.64989e+11 2.06242e+10 -4.55736e+10 -2.70601e+11 -3.77665e+11 -8.3861e+11)
(-4.78971e+11 1.17107e+10 -4.06816e+10 -3.84869e+11 -5.01865e+11 -1.14964e+12)
(-5.10918e+11 -9.00286e+09 -8.79594e+09 -4.16395e+11 -5.47381e+11 -1.23999e+12)
(-4.44455e+11 -2.42059e+10 2.29113e+10 -3.57335e+11 -4.66937e+11 -1.07681e+12)
(-3.402e+11 -2.91135e+10 4.78613e+10 -2.64456e+11 -3.11375e+11 -8.1037e+11)
(-2.30965e+11 -2.09872e+10 4.74949e+10 -1.6551e+11 -2.02994e+11 -5.30526e+11)
(-1.913e+11 -3.72541e+09 2.46833e+10 -1.33136e+11 -1.68946e+11 -4.24608e+11)
(-2.09923e+11 8.59338e+09 2.67401e+09 -1.53332e+11 -2.08852e+11 -4.69429e+11)
(-2.71998e+11 1.40846e+10 -1.67613e+10 -2.0605e+11 -2.9115e+11 -6.21824e+11)
(-3.49754e+11 1.68635e+10 -3.1241e+10 -2.72808e+11 -3.63147e+11 -8.20801e+11)
(-4.18332e+11 1.36554e+10 -2.54544e+10 -3.41005e+11 -3.69845e+11 -1.01338e+12)
(-4.43685e+11 -4.68817e+09 2.57429e+10 -3.72143e+11 -3.04082e+11 -1.08379e+12)
(-3.52224e+11 -1.83773e+10 6.99848e+10 -2.8029e+11 -2.64476e+11 -8.39756e+11)
(-2.8353e+11 -7.88479e+09 5.95758e+10 -2.02698e+11 -2.49095e+11 -6.34368e+11)
(-2.9802e+11 1.55376e+10 1.6915e+10 -2.04757e+11 -3.22085e+11 -6.54925e+11)
(-4.23119e+11 3.38783e+10 -2.63483e+10 -3.17977e+11 -4.64743e+11 -9.67082e+11)
(-5.82195e+11 2.89867e+10 -3.70301e+10 -4.69636e+11 -5.94029e+11 -1.3757e+12)
(-6.74348e+11 2.61988e+09 -1.0587e+10 -5.55868e+11 -6.19389e+11 -1.61521e+12)
(-6.66925e+11 -2.56027e+10 3.15828e+10 -5.30972e+11 -5.41885e+11 -1.57291e+12)
(-5.5694e+11 -2.98606e+10 7.31954e+09 -4.04731e+11 -4.62744e+11 -1.23859e+12)
(-4.99552e+11 -1.01802e+10 -1.17767e+11 -3.37817e+11 -3.9426e+11 -1.05173e+12)
(-4.93562e+11 5.15173e+09 -2.6701e+11 -3.45752e+11 -3.53754e+11 -1.07304e+12)
(-4.22124e+11 5.1662e+09 -3.39438e+11 -3.07485e+11 -3.34814e+11 -8.86708e+11)
(1.54677e+11 -2.46208e+10 -2.31536e+11 2.3875e+11 -2.43649e+11 7.64149e+11)
(-3.15917e+11 5.97163e+10 -7.27187e+10 -6.07784e+11 -6.83712e+11 -1.48441e+12)
(-6.30426e+11 -1.95485e+10 5.42389e+10 -6.43092e+11 -8.84047e+11 -1.58024e+12)
(-5.66593e+11 -3.65822e+10 9.03095e+10 -5.22e+11 -6.63868e+11 -1.29013e+12)
(-3.51411e+11 -4.34223e+10 8.07846e+10 -2.96284e+11 -4.29579e+11 -7.62582e+11)
(-1.84071e+11 -2.38487e+10 4.30468e+10 -1.29555e+11 -2.77488e+11 -3.74986e+11)
(-1.40171e+11 1.7056e+09 1.16002e+10 -9.43181e+10 -2.61138e+11 -2.89313e+11)
(-1.96821e+11 1.36035e+10 -4.83756e+09 -1.60893e+11 -3.63737e+11 -4.33112e+11)
(-2.73587e+11 6.94757e+09 -1.41982e+10 -2.4351e+11 -4.89457e+11 -6.1474e+11)
(-2.98489e+11 -7.96779e+09 -2.20748e+10 -2.69488e+11 -5.34284e+11 -6.76029e+11)
(-2.59427e+11 -1.86281e+10 -2.38879e+10 -2.33883e+11 -4.53855e+11 -5.94817e+11)
(-1.97249e+11 -2.29474e+10 -8.43124e+09 -1.76568e+11 -2.99739e+11 -4.57628e+11)
(-1.30349e+11 -1.76507e+10 9.80126e+09 -1.09162e+11 -1.90822e+11 -3.0486e+11)
(-1.05961e+11 -4.60356e+09 1.97001e+10 -8.5784e+10 -1.58747e+11 -2.41646e+11)
(-1.15243e+11 5.1818e+09 2.19317e+10 -9.59614e+10 -2.01158e+11 -2.52901e+11)
(-1.55487e+11 1.04194e+10 1.19732e+10 -1.31412e+11 -2.82208e+11 -3.36885e+11)
(-2.08205e+11 1.41729e+10 -4.9003e+09 -1.80799e+11 -3.51496e+11 -4.59359e+11)
(-2.54732e+11 1.29189e+10 -1.30828e+10 -2.35577e+11 -3.58653e+11 -5.81892e+11)
(-2.70785e+11 -2.48727e+09 1.18461e+10 -2.64065e+11 -2.9753e+11 -6.2777e+11)
(-2.06549e+11 -1.47873e+10 4.34817e+10 -1.93145e+11 -2.55101e+11 -4.77993e+11)
(-1.57592e+11 -7.26139e+09 5.46218e+10 -1.31753e+11 -2.37103e+11 -3.50632e+11)
(-1.63286e+11 1.06162e+10 5.13516e+10 -1.26495e+11 -3.06849e+11 -3.53239e+11)
(-2.40868e+11 2.53369e+10 3.37214e+10 -2.018e+11 -4.49977e+11 -5.20503e+11)
(-3.42879e+11 2.29992e+10 8.86399e+09 -3.0931e+11 -5.81891e+11 -7.49703e+11)
(-4.08506e+11 3.95785e+09 -1.02159e+10 -3.79025e+11 -6.07452e+11 -9.05387e+11)
(-4.19645e+11 -1.90396e+10 -1.09466e+10 -3.75776e+11 -5.22667e+11 -9.24873e+11)
(-3.61822e+11 -2.32794e+10 -4.087e+10 -2.89442e+11 -4.34761e+11 -7.57091e+11)
(-3.38475e+11 -6.48841e+09 -1.38647e+11 -2.45391e+11 -3.61223e+11 -6.7197e+11)
(-3.41625e+11 5.85223e+09 -2.64696e+11 -2.5413e+11 -3.20012e+11 -7.00725e+11)
(-2.83103e+11 1.48091e+09 -3.40366e+11 -2.06526e+11 -3.16602e+11 -5.03566e+11)
(2.27802e+11 -2.31351e+10 -2.59119e+11 3.52488e+11 -2.88638e+11 1.13071e+12)
(-1.26005e+11 5.45138e+10 -6.47546e+09 -3.42218e+11 -7.59251e+11 -4.86903e+11)
(-3.49139e+11 -6.3011e+09 3.21146e+10 -3.88956e+11 -8.91293e+11 -7.92287e+11)
(-3.09922e+11 -2.09477e+10 1.80542e+10 -3.13352e+11 -6.64156e+11 -6.59074e+11)
(-1.68601e+11 -2.83823e+10 4.79262e+09 -1.5734e+11 -4.23825e+11 -3.52912e+11)
(-5.69629e+10 -1.67784e+10 4.34746e+09 -3.88539e+10 -2.68022e+11 -1.23327e+11)
(-2.57855e+10 -1.28487e+09 1.79732e+10 -8.84322e+09 -2.51926e+11 -6.27523e+10)
(-5.98775e+10 5.46038e+09 2.40477e+10 -4.65581e+10 -3.57222e+11 -1.27705e+11)
(-1.08588e+11 1.39567e+09 4.24024e+09 -9.74715e+10 -4.85452e+11 -2.18199e+11)
(-1.28023e+11 -6.65376e+09 -3.32152e+10 -1.17757e+11 -5.30475e+11 -2.58037e+11)
(-1.09733e+11 -1.19098e+10 -6.04313e+10 -1.05307e+11 -4.50738e+11 -2.33621e+11)
(-7.94812e+10 -1.50018e+10 -5.29383e+10 -8.31413e+10 -2.98629e+11 -1.87331e+11)
(-4.55057e+10 -1.27552e+10 -2.09108e+10 -4.80752e+10 -1.87086e+11 -1.26606e+11)
(-3.39887e+10 -5.00545e+09 1.41225e+10 -3.46053e+10 -1.54835e+11 -9.73822e+10)
(-3.73126e+10 1.3286e+09 3.55632e+10 -3.55623e+10 -1.98662e+11 -8.81197e+10)
(-6.07946e+10 5.75663e+09 3.3756e+10 -5.37043e+10 -2.79131e+11 -1.23221e+11)
(-9.33666e+10 1.00779e+10 1.57017e+10 -8.48985e+10 -3.47863e+11 -1.8822e+11)
(-1.21766e+11 1.08409e+10 -2.88924e+09 -1.24658e+11 -3.5905e+11 -2.56874e+11)
(-1.29868e+11 -9.29855e+07 1.87262e+09 -1.49023e+11 -3.05612e+11 -2.83085e+11)
(-8.65073e+10 -9.79353e+09 2.38519e+10 -1.0006e+11 -2.58068e+11 -2.00617e+11)
(-5.26106e+10 -5.85087e+09 5.11283e+10 -5.56053e+10 -2.35379e+11 -1.29276e+11)
(-5.14752e+10 5.00713e+09 7.72367e+10 -4.34137e+10 -3.00792e+11 -1.193e+11)
(-9.28351e+10 1.48199e+10 7.86412e+10 -8.0822e+10 -4.45039e+11 -1.84505e+11)
(-1.51121e+11 1.50086e+10 4.35385e+10 -1.43575e+11 -5.81848e+11 -2.86363e+11)
(-1.95318e+11 4.61702e+09 -9.11013e+09 -1.94919e+11 -6.11183e+11 -3.78849e+11)
(-2.17918e+11 -1.08388e+10 -4.28951e+10 -2.10967e+11 -5.23005e+11 -4.34429e+11)
(-1.99864e+11 -1.41069e+10 -7.77565e+10 -1.65439e+11 -4.22718e+11 -3.85838e+11)
(-2.03514e+11 -1.3725e+09 -1.53756e+11 -1.45164e+11 -3.40211e+11 -3.7727e+11)
(-2.14886e+11 6.9178e+09 -2.59936e+11 -1.54608e+11 -2.96223e+11 -4.13912e+11)
(-1.68969e+11 -1.15971e+09 -3.37924e+11 -1.00436e+11 -3.04508e+11 -2.13547e+11)
(2.80734e+11 -2.0168e+10 -2.79316e+11 4.53377e+11 -3.29758e+11 1.38363e+12)
(1.58624e+10 4.78271e+10 4.98095e+10 -9.60702e+10 -8.47164e+11 2.25926e+11)
(-1.34644e+11 6.3597e+09 2.12024e+10 -1.56748e+11 -9.03834e+11 -2.21633e+11)
(-1.11315e+11 -4.81986e+09 -3.32614e+10 -1.20707e+11 -6.6987e+11 -1.99497e+11)
(-2.47456e+10 -1.23873e+10 -4.98854e+10 -2.75009e+10 -4.22786e+11 -4.94976e+10)
(4.47389e+10 -8.86417e+09 -2.41597e+10 4.72562e+10 -2.61438e+11 6.80554e+10)
(6.53495e+10 -3.57507e+09 2.07173e+10 7.18094e+10 -2.43387e+11 1.08268e+11)
(4.67062e+10 -2.12218e+09 4.22446e+10 5.85159e+10 -3.48987e+11 9.43585e+10)
(1.78376e+10 -3.91024e+09 1.53606e+10 3.46362e+10 -4.7818e+11 6.4334e+10)
(2.33841e+09 -5.51249e+09 -4.23597e+10 1.91241e+10 -5.23885e+11 3.94896e+10)
(5.63998e+09 -5.56539e+09 -8.73751e+10 1.16293e+10 -4.47027e+11 2.64418e+10)
(1.28344e+10 -7.08547e+09 -8.59875e+10 3.57823e+09 -2.99452e+11 1.16448e+10)
(2.27755e+10 -7.52266e+09 -4.45441e+10 1.00207e+10 -1.86373e+11 9.60294e+09)
(2.41519e+10 -4.95236e+09 8.35969e+09 1.41128e+10 -1.52939e+11 1.33157e+10)
(2.40896e+10 -2.20991e+09 4.40627e+10 2.03595e+10 -1.96492e+11 3.3395e+10)
(1.26726e+10 1.07836e+09 4.89231e+10 1.71616e+10 -2.75749e+11 3.12729e+10)
(-4.65658e+09 5.5984e+09 3.05775e+10 2.28596e+09 -3.44468e+11 7.34746e+09)
(-1.92293e+10 8.19171e+09 4.80183e+09 -2.34069e+10 -3.60937e+11 -2.27126e+10)
(-2.13239e+10 2.05109e+09 -4.55143e+09 -4.32336e+10 -3.16078e+11 -3.53361e+10)
(7.27191e+09 -4.69164e+09 1.08168e+10 -1.36604e+10 -2.64188e+11 2.69956e+09)
(3.05761e+10 -4.12701e+09 4.92647e+10 1.60292e+10 -2.36877e+11 3.68879e+10)
(3.69718e+10 -1.50345e+08 9.53584e+10 3.42373e+10 -2.97116e+11 5.60825e+10)
(2.1681e+10 4.68337e+09 1.09516e+11 2.95218e+10 -4.40232e+11 5.88862e+10)
(-5.13697e+09 6.94526e+09 6.7586e+10 5.59791e+09 -5.80076e+11 4.1961e+10)
(-3.31354e+10 4.66933e+09 -7.60559e+09 -2.87231e+10 -6.14123e+11 -5.85492e+09)
(-6.19185e+10 -2.82349e+09 -6.45904e+10 -5.95412e+10 -5.26792e+11 -7.99036e+10)
(-7.17556e+10 -4.42916e+09 -1.03188e+11 -4.9819e+10 -4.15667e+11 -1.0993e+11)
(-9.51266e+10 4.36489e+09 -1.62646e+11 -5.08547e+10 -3.23284e+11 -1.54713e+11)
(-1.13318e+11 8.55859e+09 -2.5253e+11 -6.09644e+10 -2.74554e+11 -1.98317e+11)
(-7.91253e+10 -2.54085e+09 -3.31976e+11 -2.71384e+09 -2.90452e+11 -1.31229e+09)
(3.15721e+11 -1.66268e+10 -2.91975e+11 5.35973e+11 -3.59754e+11 1.54022e+12)
(1.14007e+11 4.04446e+10 9.39415e+10 1.12649e+11 -9.20686e+11 6.93732e+11)
(2.06809e+10 1.68782e+10 1.80119e+10 3.79595e+10 -9.04595e+11 1.69697e+11)
(3.53613e+10 9.59335e+09 -6.61886e+10 4.26863e+10 -6.66464e+11 1.20043e+11)
(8.36422e+10 2.247e+09 -8.54626e+10 8.49062e+10 -4.16567e+11 1.66211e+11)
(1.22901e+11 -1.25292e+09 -4.32369e+10 1.23898e+11 -2.51353e+11 2.08771e+11)
(1.35255e+11 -4.91308e+09 2.08762e+10 1.43407e+11 -2.30009e+11 2.33367e+11)
(1.26517e+11 -8.22236e+09 5.16511e+10 1.48734e+11 -3.32575e+11 2.49874e+11)
(1.10835e+11 -8.38031e+09 2.03404e+10 1.45611e+11 -4.59929e+11 2.57046e+11)
(9.79266e+10 -4.78393e+09 -4.98681e+10 1.33544e+11 -5.06483e+11 2.41849e+11)
(9.08443e+10 -4.70121e+08 -1.06121e+11 1.10189e+11 -4.35332e+11 2.05401e+11)
(8.21411e+10 -3.54311e+08 -1.08941e+11 7.8243e+10 -2.95828e+11 1.51894e+11)
(7.55376e+10 -2.78576e+09 -6.17083e+10 6.15389e+10 -1.8419e+11 1.09977e+11)
(6.94317e+10 -4.53668e+09 2.77407e+09 5.75046e+10 -1.49555e+11 9.58314e+10)
(7.06828e+10 -5.00754e+09 4.82882e+10 6.86745e+10 -1.91069e+11 1.20019e+11)
(6.73837e+10 -2.98616e+09 5.83055e+10 7.72194e+10 -2.67675e+11 1.38499e+11)
(6.09216e+10 1.43744e+09 4.02874e+10 7.5699e+10 -3.35745e+11 1.42162e+11)
(5.62046e+10 5.52653e+09 1.01151e+10 6.18659e+10 -3.57151e+11 1.37708e+11)
(5.82419e+10 3.69079e+09 -8.03962e+09 4.62182e+10 -3.20548e+11 1.33398e+11)
(7.71023e+10 -2.91127e+08 3.39921e+09 6.04543e+10 -2.66642e+11 1.44482e+11)
(9.35328e+10 -2.42836e+09 4.88775e+10 7.87092e+10 -2.35935e+11 1.56325e+11)
(1.0392e+11 -4.22609e+09 1.06991e+11 1.01958e+11 -2.90212e+11 1.82424e+11)
(1.06404e+11 -3.70405e+09 1.2855e+11 1.22992e+11 -4.28457e+11 2.2757e+11)
(1.00942e+11 -1.00346e+07 8.25418e+10 1.29616e+11 -5.67325e+11 2.63204e+11)
(8.45375e+10 4.27298e+09 -5.97913e+09 1.09479e+11 -6.05352e+11 2.44936e+11)
(5.31925e+10 3.89742e+09 -7.74214e+10 6.86377e+10 -5.22571e+11 1.6379e+11)
(2.54415e+10 4.35642e+09 -1.18234e+11 4.99794e+10 -4.05013e+11 8.67846e+10)
(-1.1034e+10 1.0094e+10 -1.65408e+11 3.16564e+10 -3.04022e+11 8.34146e+09)
(-3.43052e+10 1.07822e+10 -2.42187e+11 2.10451e+10 -2.49144e+11 -4.00959e+10)
(-1.06038e+10 -2.79062e+09 -3.22252e+11 8.13796e+10 -2.6889e+11 1.48675e+11)
(3.35472e+11 -1.30981e+10 -2.97577e+11 5.98925e+11 -3.73986e+11 1.61824e+12)
(1.75551e+11 3.30593e+10 1.25426e+11 2.77673e+11 -9.64375e+11 9.64033e+11)
(1.27433e+11 2.46418e+10 1.92898e+10 1.90851e+11 -8.85584e+11 4.20793e+11)
(1.39095e+11 2.1192e+10 -8.41542e+10 1.72813e+11 -6.47314e+11 3.31435e+11)
(1.6211e+11 1.43375e+10 -1.05123e+11 1.77154e+11 -3.99958e+11 3.13208e+11)
(1.80807e+11 5.40636e+09 -5.41652e+10 1.89295e+11 -2.33898e+11 3.08802e+11)
(1.87088e+11 -5.30104e+09 1.94798e+10 2.04552e+11 -2.08575e+11 3.22123e+11)
(1.84252e+11 -1.25149e+10 5.43926e+10 2.22812e+11 -3.04913e+11 3.54662e+11)
(1.76729e+11 -1.17832e+10 2.05149e+10 2.34176e+11 -4.27543e+11 3.82304e+11)
(1.65311e+11 -4.55569e+09 -5.61847e+10 2.24139e+11 -4.74997e+11 3.72509e+11)
(1.51273e+11 2.9973e+09 -1.1841e+11 1.8886e+11 -4.12317e+11 3.22327e+11)
(1.32122e+11 4.6125e+09 -1.2371e+11 1.39189e+11 -2.84497e+11 2.46188e+11)
(1.14808e+11 9.95781e+08 -7.34158e+10 1.05063e+11 -1.77849e+11 1.81189e+11)
(1.03566e+11 -3.87428e+09 -2.35824e+09 9.44613e+10 -1.42627e+11 1.55621e+11)
(1.0484e+11 -6.89744e+09 4.92387e+10 1.08509e+11 -1.80587e+11 1.79636e+11)
(1.06568e+11 -6.11756e+09 6.29847e+10 1.25572e+11 -2.52878e+11 2.09566e+11)
(1.07363e+11 -2.01479e+09 4.56891e+10 1.34195e+11 -3.19098e+11 2.30297e+11)
(1.09193e+11 3.15325e+09 1.33991e+10 1.29553e+11 -3.44289e+11 2.4133e+11)
(1.13839e+11 4.72976e+09 -9.30926e+09 1.17313e+11 -3.15117e+11 2.4151e+11)
(1.26699e+11 3.04464e+09 3.23358e+08 1.20493e+11 -2.61809e+11 2.3786e+11)
(1.39075e+11 -9.35969e+08 4.96466e+10 1.30805e+11 -2.29258e+11 2.38081e+11)
(1.52429e+11 -6.97615e+09 1.13584e+11 1.58216e+11 -2.76826e+11 2.69374e+11)
(1.66358e+11 -9.77181e+09 1.38379e+11 1.98099e+11 -4.06266e+11 3.38557e+11)
(1.74506e+11 -5.32423e+09 9.03338e+10 2.26885e+11 -5.39731e+11 4.03526e+11)
(1.66003e+11 3.57541e+09 -4.44194e+09 2.17618e+11 -5.80304e+11 4.03388e+11)
(1.34427e+11 8.83064e+09 -8.32668e+10 1.70796e+11 -5.04893e+11 3.22017e+11)
(9.64262e+10 1.15166e+10 -1.24609e+11 1.31551e+11 -3.86103e+11 2.20724e+11)
(5.23721e+10 1.53923e+10 -1.62513e+11 1.00464e+11 -2.78878e+11 1.24154e+11)
(2.58688e+10 1.34777e+10 -2.28705e+11 8.97701e+10 -2.17055e+11 7.37404e+10)
(4.04828e+10 -2.11612e+09 -3.08661e+11 1.50803e+11 -2.37286e+11 2.5116e+11)
(3.42868e+11 -9.88022e+09 -2.97001e+11 6.4323e+11 -3.70169e+11 1.635e+12)
(2.08513e+11 2.62376e+10 1.45249e+11 3.99813e+11 -9.71423e+11 1.08511e+12)
(1.96479e+11 2.96837e+10 2.26874e+10 3.03761e+11 -8.45117e+11 5.6761e+11)
(2.09236e+11 2.97299e+10 -9.06176e+10 2.70799e+11 -6.11215e+11 4.63256e+11)
(2.16703e+11 2.35613e+10 -1.12246e+11 2.49597e+11 -3.71175e+11 4.08892e+11)
(2.22232e+11 1.0859e+10 -5.84075e+10 2.43359e+11 -2.07212e+11 3.7765e+11)
(2.24354e+11 -4.88293e+09 1.74033e+10 2.55354e+11 -1.77629e+11 3.83413e+11)
(2.24706e+11 -1.50625e+10 5.24675e+10 2.81675e+11 -2.65235e+11 4.22557e+11)
(2.21753e+11 -1.41289e+10 1.71617e+10 3.02033e+11 -3.80807e+11 4.59281e+11)
(2.10965e+11 -4.82116e+09 -6.17502e+10 2.92705e+11 -4.29244e+11 4.51659e+11)
(1.92385e+11 4.79845e+09 -1.26008e+11 2.48828e+11 -3.7739e+11 3.93979e+11)
(1.66727e+11 7.67124e+09 -1.32329e+11 1.86767e+11 -2.64427e+11 3.06157e+11)
(1.42973e+11 3.65211e+09 -8.08187e+10 1.40384e+11 -1.66106e+11 2.29664e+11)
(1.28512e+11 -3.07551e+09 -6.85694e+09 1.24821e+11 -1.31239e+11 1.97745e+11)
(1.2904e+11 -7.88573e+09 4.78913e+10 1.40152e+11 -1.64487e+11 2.19147e+11)
(1.33515e+11 -8.22626e+09 6.40898e+10 1.6289e+11 -2.30913e+11 2.54122e+11)
(1.38765e+11 -4.61474e+09 4.77236e+10 1.78644e+11 -2.93956e+11 2.84137e+11)
(1.44582e+11 1.18725e+09 1.50591e+10 1.8055e+11 -3.21555e+11 3.03328e+11)
(1.5072e+11 5.18512e+09 -9.06227e+09 1.70838e+11 -2.98915e+11 3.05534e+11)
(1.60148e+11 5.27172e+09 3.15667e+08 1.66773e+11 -2.48408e+11 2.95049e+11)
(1.70448e+11 2.98924e+08 5.12186e+10 1.72264e+11 -2.15382e+11 2.90814e+11)
(1.85952e+11 -8.40963e+09 1.16543e+11 2.0309e+11 -2.55533e+11 3.25993e+11)
(2.06752e+11 -1.34891e+10 1.41582e+11 2.55816e+11 -3.72749e+11 4.069e+11)
(2.22918e+11 -8.91787e+09 9.28772e+10 2.99387e+11 -4.96933e+11 4.8554e+11)
(2.19545e+11 2.68527e+09 -3.15128e+09 2.97797e+11 -5.38559e+11 4.9544e+11)
(1.89139e+11 1.19237e+10 -8.40489e+10 2.48036e+11 -4.72482e+11 4.17611e+11)
(1.46381e+11 1.68244e+10 -1.24202e+11 1.95203e+11 -3.57221e+11 3.07086e+11)
(9.90671e+10 2.00271e+10 -1.54644e+11 1.5573e+11 -2.46437e+11 2.0388e+11)
(7.11023e+10 1.64904e+10 -2.1203e+11 1.45657e+11 -1.77358e+11 1.54601e+11)
(7.80881e+10 -7.04038e+08 -2.91344e+11 2.06597e+11 -1.95077e+11 3.19176e+11)
(3.40778e+11 -7.05941e+09 -2.91303e+11 6.71113e+11 -3.47672e+11 1.60673e+12)
(2.20719e+11 2.03554e+10 1.55475e+11 4.83973e+11 -9.40821e+11 1.10171e+12)
(2.37584e+11 3.2389e+10 2.69691e+10 3.81685e+11 -7.85117e+11 6.4072e+11)
(2.54201e+11 3.55008e+10 -8.85525e+10 3.40442e+11 -5.59956e+11 5.39036e+11)
(2.5308e+11 3.01319e+10 -1.09924e+11 3.04209e+11 -3.30548e+11 4.67977e+11)
(2.50878e+11 1.51108e+10 -5.73836e+10 2.86906e+11 -1.70826e+11 4.23775e+11)
(2.50435e+11 -3.8598e+09 1.53147e+10 2.96688e+11 -1.36915e+11 4.2502e+11)
(2.52251e+11 -1.6134e+10 4.75699e+10 3.27256e+11 -2.14133e+11 4.65011e+11)
(2.51429e+11 -1.55619e+10 1.13866e+10 3.52204e+11 -3.21098e+11 5.03503e+11)
(2.40628e+11 -5.5219e+09 -6.69542e+10 3.42446e+11 -3.70718e+11 4.95687e+11)
(2.19109e+11 5.10071e+09 -1.3051e+11 2.92553e+11 -3.31534e+11 4.34206e+11)
(1.89646e+11 8.95842e+09 -1.36688e+11 2.22354e+11 -2.35947e+11 3.41649e+11)
(1.62397e+11 5.20558e+09 -8.50365e+10 1.67962e+11 -1.48716e+11 2.61127e+11)
(1.46169e+11 -2.23051e+09 -1.06279e+10 1.48926e+11 -1.1525e+11 2.26584e+11)
(1.45571e+11 -8.07632e+09 4.51116e+10 1.64453e+11 -1.42972e+11 2.44269e+11)
(1.51212e+11 -9.36997e+09 6.26698e+10 1.90575e+11 -2.02248e+11 2.80102e+11)
(1.5886e+11 -6.38226e+09 4.7278e+10 2.10869e+11 -2.60919e+11 3.13957e+11)
(1.66802e+11 -3.73685e+08 1.54659e+10 2.16986e+11 -2.8967e+11 3.3634e+11)
(1.7367e+11 5.14108e+09 -7.9132e+09 2.08993e+11 -2.72788e+11 3.39107e+11)
(1.81326e+11 6.52983e+09 2.2709e+09 2.00723e+11 -2.26629e+11 3.26527e+11)
(1.90836e+11 1.30674e+09 5.32873e+10 2.03897e+11 -1.94079e+11 3.2222e+11)
(2.07856e+11 -8.67838e+09 1.17105e+11 2.37514e+11 -2.26144e+11 3.60306e+11)
(2.3239e+11 -1.51317e+10 1.40412e+11 2.9829e+11 -3.28504e+11 4.45202e+11)
(2.52748e+11 -1.09734e+10 9.18501e+10 3.50727e+11 -4.40467e+11 5.2765e+11)
(2.52534e+11 1.6764e+09 -2.22173e+09 3.54054e+11 -4.81925e+11 5.42162e+11)
(2.24061e+11 1.33824e+10 -8.14751e+10 3.03414e+11 -4.26457e+11 4.69548e+11)
(1.80242e+11 2.03708e+10 -1.18786e+11 2.42658e+11 -3.18518e+11 3.58999e+11)
(1.32855e+11 2.39104e+10 -1.42561e+11 1.98668e+11 -2.06653e+11 2.57148e+11)
(1.05001e+11 1.96662e+10 -1.92259e+11 1.90148e+11 -1.30315e+11 2.12003e+11)
(1.05821e+11 1.29297e+09 -2.70633e+11 2.50709e+11 -1.42843e+11 3.63667e+11)
(3.31962e+11 -4.59767e+09 -2.81567e+11 6.85292e+11 -3.0708e+11 1.54833e+12)
(2.19252e+11 1.55837e+10 1.58781e+11 5.37044e+11 -8.75265e+11 1.05305e+12)
(2.58855e+11 3.32652e+10 3.19038e+10 4.30861e+11 -7.0923e+11 6.64676e+11)
(2.80946e+11 3.90532e+10 -8.0228e+10 3.86589e+11 -4.96647e+11 5.77007e+11)
(2.76069e+11 3.45202e+10 -1.00736e+11 3.43636e+11 -2.79561e+11 5.02185e+11)
(2.70043e+11 1.8308e+10 -5.23504e+10 3.21148e+11 -1.25214e+11 4.54308e+11)
(2.6832e+11 -2.43507e+09 1.36758e+10 3.29718e+11 -8.69836e+10 4.53455e+11)
(2.70588e+11 -1.6072e+10 4.10343e+10 3.61771e+11 -1.52948e+11 4.91104e+11)
(2.70331e+11 -1.62789e+10 4.08219e+09 3.88025e+11 -2.5054e+11 5.26987e+11)
(2.59046e+11 -6.57376e+09 -7.21116e+10 3.76935e+11 -3.01687e+11 5.17285e+11)
(2.35586e+11 4.17565e+09 -1.33246e+11 3.22895e+11 -2.76526e+11 4.5391e+11)
(2.04054e+11 8.75944e+09 -1.38389e+11 2.4774e+11 -2.00144e+11 3.60584e+11)
(1.75204e+11 5.78861e+09 -8.70604e+10 1.88585e+11 -1.26093e+11 2.80394e+11)
(1.58214e+11 -1.40337e+09 -1.36447e+10 1.67346e+11 -9.50153e+10 2.45719e+11)
(1.56396e+11 -7.61641e+09 4.16158e+10 1.82455e+11 -1.16672e+11 2.59527e+11)
(1.62191e+11 -9.6864e+09 5.96266e+10 2.10248e+11 -1.67829e+11 2.93765e+11)
(1.7081e+11 -7.42702e+09 4.51147e+10 2.33002e+11 -2.21194e+11 3.279e+11)
(1.79603e+11 -1.58751e+09 1.49214e+10 2.41425e+11 -2.50132e+11 3.50325e+11)
(1.86711e+11 4.70974e+09 -6.35836e+09 2.34492e+11 -2.3841e+11 3.52833e+11)
(1.93602e+11 7.03343e+09 5.31471e+09 2.24233e+11 -1.97507e+11 3.40763e+11)
(2.03094e+11 2.15168e+09 5.56251e+10 2.26921e+11 -1.65913e+11 3.38786e+11)
(2.21156e+11 -7.99941e+09 1.16286e+11 2.62804e+11 -1.89275e+11 3.79094e+11)
(2.47392e+11 -1.51084e+10 1.36692e+11 3.28069e+11 -2.74956e+11 4.63571e+11)
(2.69478e+11 -1.1788e+10 8.86066e+10 3.84964e+11 -3.72745e+11 5.4416e+11)
(2.71081e+11 5.98394e+08 -1.73291e+09 3.91002e+11 -4.13204e+11 5.59817e+11)
(2.4488e+11 1.35234e+10 -7.69312e+10 3.40719e+11 -3.69124e+11 4.92728e+11)
(2.02335e+11 2.24075e+10 -1.09883e+11 2.76253e+11 -2.71243e+11 3.87219e+11)
(1.57088e+11 2.705e+10 -1.27017e+11 2.30932e+11 -1.60333e+11 2.91911e+11)
(1.30652e+11 2.28757e+10 -1.69611e+11 2.25033e+11 -7.68435e+10 2.53548e+11)
(1.26753e+11 3.74689e+09 -2.46982e+11 2.85296e+11 -8.17851e+10 3.93416e+11)
(3.18945e+11 -2.41095e+09 -2.68823e+11 6.88464e+11 -2.49999e+11 1.47297e+12)
(2.1019e+11 1.19172e+10 1.5801e+11 5.66435e+11 -7.79751e+11 9.71966e+11)
(2.66633e+11 3.28027e+10 3.79879e+10 4.57533e+11 -6.21661e+11 6.58295e+11)
(2.94854e+11 4.09838e+10 -6.72023e+10 4.14094e+11 -4.24711e+11 5.90601e+11)
(2.89509e+11 3.72588e+10 -8.66847e+10 3.70576e+11 -2.20233e+11 5.20365e+11)
(2.82442e+11 2.06467e+10 -4.4356e+10 3.47333e+11 -7.14673e+10 4.74929e+11)
(2.80462e+11 -7.8714e+08 1.27662e+10 3.55572e+11 -2.89357e+10 4.73881e+11)
(2.82659e+11 -1.52126e+10 3.38454e+10 3.87263e+11 -8.34174e+10 5.07709e+11)
(2.82027e+11 -1.64746e+10 -4.06984e+09 4.12559e+11 -1.71525e+11 5.3863e+11)
(2.69924e+11 -7.87938e+09 -7.74505e+10 3.99482e+11 -2.24665e+11 5.25855e+11)
(2.45096e+11 2.33291e+09 -1.35237e+11 3.42583e+11 -2.14471e+11 4.61294e+11)
(2.12517e+11 7.4179e+09 -1.38691e+11 2.64717e+11 -1.58491e+11 3.69045e+11)
(1.83164e+11 5.58648e+09 -8.77104e+10 2.03128e+11 -9.90649e+10 2.91305e+11)
(1.66021e+11 -6.32553e+08 -1.59303e+10 1.807e+11 -7.11968e+10 2.57924e+11)
(1.63093e+11 -6.66289e+09 3.79611e+10 1.95163e+11 -8.64505e+10 2.68351e+11)
(1.68473e+11 -9.34629e+09 5.56892e+10 2.23453e+11 -1.28821e+11 2.99844e+11)
(1.77147e+11 -7.89506e+09 4.18466e+10 2.47093e+11 -1.7625e+11 3.32142e+11)
(1.85968e+11 -2.52827e+09 1.3656e+10 2.5637e+11 -2.04738e+11 3.52759e+11)
(1.93018e+11 4.00454e+09 -4.77015e+09 2.50002e+11 -1.97749e+11 3.54563e+11)