/*--------------------------------*- C++ -*----------------------------------*\
| =========                 |                                                 |
| \\      /  F ield         | OpenFOAM: The Open Source CFD Toolbox           |
|  \\    /   O peration     | Version:  2106                                  |
|   \\  /    A nd           | Website:  www.openfoam.com                      |
|    \\/     M anipulation  |                                                 |
\*---------------------------------------------------------------------------*/
FoamFile
{
    version     2.0;
    format      ascii;
    arch        "LSB;label=32;scalar=64";
    class       volVectorField;
    location    "1672";
    object      D;
}
// * * * * * * * * * * * * * * * * * * * * * * * * * * * * * * * * * * * * * //

dimensions      [0 1 0 0 0 0 0];

internalField   nonuniform List<vector> 
9000
(
(190.785 443.724 544.027)
(-39.7757 396.1 413.909)
(-106.621 300.004 308.078)
(-109.612 193.799 200.086)
(-79.8284 108.144 116.613)
(-41.6115 55.8244 67.784)
(-12.1298 33.278 47.641)
(2.47816 27.9722 42.4317)
(5.81708 27.015 40.0403)
(5.03929 23.5118 35.6077)
(5.62804 17.749 29.7278)
(10.7252 13.8956 25.2844)
(20.6535 17.2936 27.2685)
(31.2979 30.9454 39.8041)
(35.4417 52.8243 62.0474)
(27.501 75.6813 86.5821)
(8.67159 90.355 102.806)
(-11.87 91.4445 103.807)
(-22.8643 82.1456 92.8125)
(-20.8118 72.2098 81.5471)
(-12.5446 69.2828 78.8265)
(-7.89458 73.4242 84.3704)
(-12.4791 78.0675 91.2561)
(-25.453 74.7965 91.1316)
(-41.3151 58.5281 79.1993)
(-53.3239 30.4702 55.5588)
(-56.6725 -2.91537 24.8742)
(-51.7045 -34.2455 -5.87255)
(-41.8399 -59.5006 -33.5608)
(-28.3261 -73.1714 -44.195)
(187.9 291.082 363.236)
(-27.1786 258.558 255.914)
(-88.7302 194.685 188.528)
(-92.3341 123.175 122.639)
(-66.9206 64.5731 73.553)
(-34.049 28.3809 46.1561)
(-8.72221 12.9992 35.6599)
(3.72821 10.1828 33.1702)
(6.46978 10.6998 31.434)
(5.68736 8.94294 28.1766)
(6.07174 5.09173 23.9771)
(10.3543 2.65521 20.3931)
(18.8613 5.50395 20.5567)
(28.0004 15.2456 27.4346)
(31.4013 29.9923 40.8958)
(24.1086 44.8277 56.3134)
(7.17649 54.0491 66.674)
(-11.2471 54.5766 67.2262)
(-21.1627 48.6506 60.0177)
(-19.4837 42.1923 52.9917)
(-12.29 40.0374 51.8852)
(-8.25248 42.3834 56.2985)
(-12.2928 44.7464 61.8633)
(-23.6685 41.2404 63.4153)
(-37.5856 28.2216 58.0656)
(-48.1499 7.12363 45.4657)
(-51.0771 -16.7186 27.9963)
(-46.6061 -38.0094 9.75464)
(-37.8172 -54.0953 -7.6147)
(-27.1946 -64.5641 -11.2785)
(181.109 206.695 295.178)
(-16.8298 183.981 198.24)
(-73.3697 137.085 144.904)
(-77.3016 83.8093 93.8434)
(-55.3684 39.2155 56.8035)
(-26.8643 11.2292 37.0379)
(-5.03803 -0.511184 30.2553)
(5.41034 -1.97424 29.2152)
(7.29791 -0.522372 28.1072)
(6.14999 -1.16027 25.2234)
(6.16353 -3.78107 21.2372)
(9.75102 -5.21643 17.5977)
(17.137 -2.40326 16.9953)
(25.0617 5.45352 21.9065)
(27.8462 16.4786 32.2679)
(21.1006 26.9963 44.3698)
(5.78887 33.2148 52.5373)
(-10.7889 33.3682 52.8864)
(-19.6886 29.1888 47.1174)
(-18.1993 24.4753 41.7649)
(-11.8117 22.5549 41.421)
(-8.27803 23.7282 45.646)
(-11.978 24.5664 50.8833)
(-22.23 20.4827 52.9465)
(-34.7046 8.63632 49.4697)
(-44.0746 -9.2742 40.1539)
(-46.493 -28.3979 26.9562)
(-42.2085 -44.3974 13.0775)
(-34.0467 -55.3384 -0.308765)
(-25.8365 -63.3492 -1.62793)
(171.992 156.316 256.563)
(-8.24315 140.209 166.598)
(-59.6444 103.091 120.871)
(-63.7259 60.194 77.5473)
(-44.7493 23.433 46.6854)
(-19.9815 -0.115568 30.9007)
(-1.19969 -9.99155 26.2713)
(7.38398 -10.8232 26.3496)
(8.27727 -8.87176 25.8634)
(6.54138 -8.71264 23.1449)
(6.08179 -10.3365 19.0005)
(9.05124 -10.8882 15.0933)
(15.4944 -7.86539 14.0354)
(22.3614 -0.971418 17.9771)
(24.5792 7.94205 26.7435)
(18.3036 15.9406 37.0493)
(4.45097 20.3705 43.9761)
(-10.4274 20.2623 44.1792)
(-18.3464 17.0333 39.2302)
(-16.9525 13.2164 34.8585)
(-11.2262 11.2602 35.0299)
(-8.15178 11.5269 39.2965)
(-11.6704 11.1923 44.4287)
(-21.1257 6.42592 46.6251)
(-32.4853 -5.04343 43.6987)
(-40.8081 -21.3326 35.5753)
(-42.6399 -37.8928 24.2744)
(-38.3201 -50.8376 12.6311)
(-30.5589 -58.5375 1.55414)
(-24.0225 -64.4174 1.17665)
(161.287 123.973 225.678)
(-1.09964 112.994 141.825)
(-47.1756 82.0446 101.919)
(-51.2522 45.4527 64.4784)
(-34.8818 13.3153 38.2427)
(-13.4081 -7.78939 25.4565)
(2.66602 -16.8331 22.5534)
(9.51053 -17.5534 23.6333)
(9.3551 -15.44 23.7285)
(6.91882 -14.656 21.116)
(5.93651 -15.334 16.7432)
(8.3384 -14.9964 12.5487)
(13.9447 -11.6207 11.1412)
(19.8445 -5.23083 14.3898)
(21.5176 2.39256 21.9693)
(15.6528 8.81747 30.8879)
(3.15017 12.1142 36.8266)
(-10.1258 11.8204 36.8972)
(-17.0959 9.12514 32.5979)
(-15.7499 5.75666 29.0072)
(-10.6034 3.60735 29.6125)
(-7.97382 3.06656 33.966)
(-11.4327 1.72062 39.0199)
(-20.316 -3.74188 41.1956)
(-30.7753 -15.1191 38.4356)
(-38.1507 -30.4583 30.9535)
(-39.3539 -45.4873 20.9338)
(-34.8643 -56.5259 10.984)
(-27.3699 -61.9549 1.77278)
(-21.9738 -65.6787 1.99589)
(149.578 102.093 198.445)
(4.77334 95.4965 120.442)
(-35.8924 68.8135 85.4715)
(-39.8131 36.2416 53.0469)
(-25.7572 6.89626 30.7159)
(-7.21829 -12.9388 20.4555)
(6.4281 -21.8248 19.0432)
(11.6614 -22.8269 21.0105)
(10.4681 -20.7975 21.6066)
(7.30239 -19.4835 19.0665)
(5.79038 -19.2024 14.4703)
(7.66362 -17.9293 10.0196)
(12.5035 -14.1013 8.32722)
(17.5024 -7.96008 11.0095)
(18.6503 -1.17112 17.5929)
(13.1478 4.21673 25.3225)
(1.89986 6.76431 30.398)
(-9.86507 6.33839 30.3479)
(-15.9276 3.94114 26.618)
(-14.6047 0.763609 23.709)
(-9.9853 -1.68379 24.7017)
(-7.7971 -3.00794 29.1445)
(-11.2896 -5.2914 34.1056)
(-19.7599 -11.422 36.1628)
(-29.4693 -22.7912 33.4078)
(-35.9833 -37.4859 26.3587)
(-36.5582 -51.5257 17.3775)
(-31.8341 -61.3075 8.89653)
(-24.5234 -64.9983 1.36066)
(-20.0058 -66.3956 2.20062)
(137.376 86.7625 174.037)
(9.51598 84.0608 101.799)
(-25.8016 60.604 71.1136)
(-29.4279 30.7028 43.0476)
(-17.4164 3.03468 24.0762)
(-1.49611 -16.2706 15.9691)
(9.97057 -25.4609 15.8265)
(13.7269 -27.0336 18.5376)
(11.5551 -25.2532 19.5281)
(7.69224 -23.4641 17.0324)
(5.67696 -22.2007 12.2451)
(7.05748 -19.9459 7.59065)
(11.1848 -15.5933 5.67173)
(15.341 -9.5431 7.87785)
(15.9879 -3.31564 13.603)
(10.8066 1.35999 20.2943)
(0.71944 3.39778 24.6063)
(-9.63224 2.87501 24.4522)
(-14.8395 0.629091 21.2356)
(-13.5276 -2.5192 18.9369)
(-9.39743 -5.33975 20.2781)
(-7.65081 -7.44893 24.7938)
(-11.2475 -10.6279 29.6311)
(-19.4182 -17.3747 31.4929)
(-28.4883 -28.7417 28.6534)
(-34.224 -42.9427 21.9282)
(-34.207 -56.3074 13.8439)
(-29.2374 -65.2321 6.68724)
(-22.074 -67.4988 0.709377)
(-18.4128 -66.357 2.35953)
(125.098 75.7847 152.015)
(13.2786 76.5393 85.5474)
(-16.8939 55.7104 58.6536)
(-20.1139 27.664 34.407)
(-9.89318 0.978235 18.3427)
(3.69277 -18.2693 12.0651)
(13.2024 -28.0716 12.9702)
(15.6196 -30.4088 16.2597)
(12.562 -28.9753 17.5264)
(8.07619 -26.746 15.0494)
(5.60911 -24.4912 10.116)
(6.53507 -21.2293 5.3213)
(9.99685 -16.3037 3.23277)
(13.3671 -10.2396 5.03493)
(13.5425 -4.39788 10.0108)
(8.64662 -0.226117 15.7865)
(-0.374039 1.45726 19.4214)
(-9.41699 0.85676 19.1831)
(-13.8285 -1.34059 16.4376)
(-12.523 -4.57082 14.6941)
(-8.85329 -7.81782 16.349)
(-7.54943 -10.7121 20.9086)
(-11.3021 -14.7455 25.5802)
(-19.2531 -22.0402 27.1846)
(-27.7682 -33.3813 24.2109)
(-32.8071 -47.1723 17.7534)
(-32.2602 -60.0615 10.48)
(-27.0756 -68.3941 4.55167)
(-20.0712 -69.4384 0.0634518)
(-17.4445 -65.5557 2.84228)
(113.073 67.8599 132.033)
(16.2236 71.5916 71.3821)
(-9.12124 53.0077 47.921)
(-11.8586 26.3197 27.0535)
(-3.19564 0.189635 13.5187)
(8.30966 -19.2881 8.78782)
(16.0602 -29.886 10.5244)
(17.2739 -33.095 14.2179)
(13.4421 -32.0541 15.6395)
(8.43289 -29.4114 13.1553)
(5.58313 -26.1792 8.12311)
(6.09824 -21.9128 3.2534)
(8.94176 -16.3896 1.04965)
(11.5841 -10.2391 2.50857)
(11.3217 -4.66174 6.8235)
(6.67998 -0.851964 11.7856)
(-1.36814 0.580595 14.8184)
(-9.21083 -0.092603 14.5165)
(-12.8898 -2.32216 12.2084)
(-11.5893 -5.71721 10.9766)
(-8.35616 -9.42547 12.9144)
(-7.49576 -13.0894 17.4832)
(-11.4415 -17.9207 21.9433)
(-19.2288 -25.6832 23.2423)
(-27.2545 -36.9647 20.1101)
(-31.6749 -50.399 13.8972)
(-30.6752 -62.9511 7.38777)
(-25.337 -70.8803 2.63188)
(-18.5524 -70.8501 -0.393818)
(-17.3051 -64.0678 3.9305)
(101.561 62.2035 113.851)
(18.5167 68.3557 59.059)
(-2.39951 51.7208 38.7713)
(-4.61622 26.0891 20.9228)
(2.6963 0.269025 9.60057)
(12.3434 -19.5927 6.17064)
(18.5072 -31.0689 8.53542)
(18.6446 -35.1824 12.4605)
(14.1554 -34.5397 13.9183)
(8.73378 -31.5081 11.397)
(5.58158 -27.3363 6.30592)
(5.73731 -22.0969 1.42015)
(8.01496 -15.974 -0.849188)
(9.99117 -9.68774 0.319974)
(9.32838 -4.28547 4.04978)
(4.91296 -0.735189 8.28605)
(-2.25519 0.517191 10.7832)
(-9.00704 -0.234946 10.4364)
(-12.0165 -2.56515 8.53585)
(-10.7193 -6.19001 7.7796)
(-7.90005 -10.3779 9.9749)
(-7.48216 -14.7754 14.5201)
(-11.6477 -20.3276 18.7267)
(-19.3114 -28.4679 19.6848)
(-26.9 -39.653 16.3853)
(-30.7746 -52.7695 10.4136)
(-29.4048 -65.0876 4.64783)
(-23.9971 -72.7587 1.04069)
(-17.5397 -71.7843 -0.515814)
(-18.1585 -62.0094 5.84741)
(90.7731 58.339 97.3221)
(20.3181 66.2686 48.39)
(3.38204 51.3041 31.0851)
(1.68894 26.544 15.9577)
(7.82852 0.912821 6.58211)
(15.8075 -19.3879 4.24219)
(20.5298 -31.745 7.05154)
(19.7033 -36.7351 11.0459)
(14.668 -36.466 12.4257)
(8.94471 -33.0699 9.83017)
(5.576 -28.0163 4.70625)
(5.4327 -21.8603 -0.149403)
(7.20568 -15.1562 -2.44184)
(8.58317 -8.70288 -1.51354)
(7.56066 -3.40792 1.70028)
(3.34674 -0.0395803 5.29027)
(-3.03179 1.08189 7.31185)
(-8.80025 0.237014 6.9352)
(-11.1996 -2.25286 5.41253)
(-9.90031 -6.15913 5.10058)
(-7.47059 -10.8309 7.53481)
(-7.49186 -15.9057 12.032)
(-11.8973 -22.0818 15.9529)
(-19.4684 -30.5022 16.547)
(-26.6631 -41.553 13.0797)
(-30.0558 -54.382 7.35585)
(-28.397 -66.5463 2.33145)
(-23.0193 -74.0811 -0.124616)
(-17.04 -72.2986 -0.17821)
(-20.1338 -59.5215 8.77343)
(80.8869 55.9707 82.3764)
(21.7768 64.9577 39.2309)
(8.35214 51.3689 24.7598)
(7.15611 27.3651 12.106)
(12.2683 1.88801 4.4558)
(18.7361 -18.8351 3.02888)
(22.1337 -32.0158 6.12321)
(20.4356 -37.8088 10.0404)
(14.9505 -37.8662 11.2337)
(9.02768 -34.1291 8.51706)
(5.52943 -28.2655 3.36793)
(5.15672 -21.2687 -1.42854)
(6.49744 -14.0191 -3.71075)
(7.35088 -7.38291 -2.97782)
(6.01268 -2.14405 -0.213972)
(1.97801 1.10223 2.80464)
(-3.69802 2.12797 4.40563)
(-8.58581 1.17324 4.00941)
(-10.4278 -1.52575 2.83395)
(-9.11491 -5.75326 2.93873)
(-7.04617 -10.9013 5.60157)
(-7.5005 -16.5813 10.0393)
(-12.1632 -23.2695 13.6572)
(-19.6693 -31.8663 13.8757)
(-26.5063 -42.7425 10.2446)
(-29.4699 -55.3069 4.77916)
(-27.5942 -67.3819 0.506725)
(-22.3555 -74.8899 -0.774516)
(-17.0458 -72.4576 0.729481)
(-23.3295 -56.7647 12.8547)
(72.0491 54.8997 69.0011)
(23.0282 64.1698 31.4693)
(12.6506 51.6373 19.704)
(11.9023 28.3149 9.31799)
(16.0995 3.0142 3.21332)
(21.179 -18.0661 2.55576)
(23.3398 -31.9723 5.80199)
(20.8377 -38.4619 9.5144)
(14.9777 -38.782 10.4191)
(8.94242 -34.7244 7.52291)
(5.39901 -28.1298 2.3355)
(4.87544 -20.3803 -2.39236)
(5.86878 -12.6346 -4.64162)
(6.28112 -5.81366 -4.06176)
(4.67474 -0.594382 -1.68334)
(0.799676 2.57554 0.835955)
(-4.25659 3.53124 2.06726)
(-8.35902 2.45045 1.6566)
(-9.68707 -0.496188 0.79663)
(-8.34105 -5.07367 1.29438)
(-6.59931 -10.6817 4.18489)
(-7.47811 -16.8845 8.56778)
(-12.4156 -23.9642 11.8823)
(-19.8848 -32.6301 11.7254)
(-26.3952 -43.2885 7.93611)
(-28.9681 -55.6029 2.74079)
(-26.9339 -67.6403 -0.759151)
(-21.9473 -75.2269 -0.823687)
(-17.5365 -72.3343 2.30776)
(-27.8163 -53.9158 18.2065)
(64.3805 54.968 57.2204)
(24.1952 63.7247 25.0146)
(16.4235 51.9114 15.834)
(16.0567 29.2178 7.54587)
(19.418 4.15028 2.84608)
(23.1977 -17.1925 2.84654)
(24.1793 -31.7021 6.13855)
(20.9139 -38.7624 9.53857)
(14.7278 -39.2688 10.0587)
(8.64763 -34.9049 6.91281)
(5.13817 -27.659 1.65268)
(4.5505 -19.2507 -3.01776)
(5.29414 -11.0679 -5.22294)
(5.35709 -4.0729 -4.75733)
(3.53363 1.14932 -2.70107)
(-0.19844 4.27609 -0.611287)
(-4.71192 5.18091 0.297511)
(-8.1144 3.96232 -0.12699)
(-8.96041 0.741752 -0.703301)
(-7.55265 -4.20368 0.168268)
(-6.0981 -10.2491 3.29568)
(-7.39105 -16.8893 7.64579)
(-12.6233 -24.2381 10.6745)
(-20.0867 -32.8654 10.1533)
(-26.2971 -43.2581 6.21213)
(-28.501 -55.3279 1.29859)
(-26.348 -67.3691 -1.39974)
(-21.7264 -75.1394 -0.190029)
(-18.4787 -72.0123 4.64822)
(-33.6375 -51.1651 24.9142)
(57.9789 56.0229 47.078)
(25.3907 63.4848 19.7898)
(19.819 52.051 13.0717)
(19.7555 29.9457 6.74445)
(22.3271 5.18394 3.34574)
(24.8614 -16.3139 3.9233)
(24.691 -31.2945 7.18059)
(20.6738 -38.7901 10.18)
(14.1817 -39.398 10.2259)
(8.10219 -34.7325 6.74894)
(4.69861 -26.9093 1.36084)
(4.14074 -17.935 -3.28371)
(4.74471 -9.38031 -5.44564)
(4.55872 -2.23351 -5.05974)
(2.57314 3.00054 -3.26427)
(-1.02895 6.1059 -1.53679)
(-5.06933 6.9745 -0.906866)
(-7.84515 5.61345 -1.34794)
(-8.22784 2.10572 -1.67092)
(-6.72018 -3.21541 -0.438977)
(-5.5076 -9.67238 2.94517)
(-7.20386 -16.6676 7.30164)
(-12.7551 -24.1686 10.0794)
(-20.2483 -32.6518 9.21539)
(-26.1807 -42.7258 5.12946)
(-28.0182 -54.5466 0.5093)
(-25.7632 -66.6245 -1.35021)
(-21.6151 -74.6859 1.20505)
(-19.8268 -71.586 7.83364)
(-40.8081 -48.7111 33.0333)
(52.9237 57.8971 38.6199)
(26.7211 63.336 15.7251)
(22.985 51.9586 11.3446)
(23.1376 30.4059 6.87195)
(24.9339 6.02306 4.70477)
(26.2436 -15.5226 5.8063)
(24.9179 -30.8426 8.97151)
(20.1308 -38.6375 11.4998)
(13.3223 -39.2562 10.9877)
(7.26585 -34.2821 7.08857)
(4.03178 -25.9443 1.498)
(3.60361 -16.4905 -3.17142)
(4.1893 -7.6318 -5.30304)
(3.86326 -0.365833 -4.96756)
(1.77458 4.87598 -3.37457)
(-1.70624 7.9711 -1.94557)
(-5.33428 8.8151 -1.55438)
(-7.54274 7.31545 -2.01644)
(-7.46656 3.52046 -2.11306)
(-5.81125 -2.17474 -0.527203)
(-4.79097 -9.01643 3.14432)
(-6.88078 -16.2935 7.56214)
(-12.781 -23.8411 10.1393)
(-20.3446 -32.08 8.96344)
(-26.0152 -41.7779 4.74118)
(-27.4677 -53.3362 0.426994)
(-25.1014 -65.4772 -0.548345)
(-21.5263 -73.9399 3.43609)
(-21.5225 -71.1599 11.9383)
(-49.3149 -46.7544 42.5909)
(49.28 60.4002 31.8805)
(28.2893 63.1775 12.7528)
(26.0664 51.5662 10.5857)
(26.3405 30.5297 7.89127)
(27.3465 6.58766 6.91738)
(27.42 -14.9091 8.51439)
(24.9056 -30.4453 11.55)
(19.2999 -38.4086 13.552)
(12.1345 -38.944 12.4036)
(6.09989 -33.641 7.98301)
(3.09007 -24.8363 2.09821)
(2.89628 -14.9786 -2.66438)
(3.59518 -5.88305 -4.79067)
(3.24576 1.46059 -4.48281)
(1.11727 6.69424 -3.03848)
(-2.24587 9.78087 -1.84847)
(-5.51188 10.6099 -1.65934)
(-7.19672 8.98432 -2.14663)
(-6.65122 4.91428 -2.03845)
(-4.79119 -1.14525 -0.0968232)
(-3.9105 -8.34617 3.90376)
(-6.38711 -15.8452 8.45168)
(-12.6732 -23.3501 10.8915)
(-20.3525 -31.2536 9.44315)
(-25.7707 -40.5148 5.0953)
(-26.7966 -51.7896 1.10203)
(-24.28 -64.0164 1.06478)
(-21.3636 -72.9934 6.57348)
(-23.493 -70.8485 17.0293)
(-59.1157 -45.4918 53.5897)
(47.1004 63.3188 26.8713)
(30.1961 62.9145 10.805)
(29.2022 50.8242 10.7344)
(29.4975 30.262 9.77134)
(29.6711 6.80137 9.98076)
(28.4669 -14.5669 12.0662)
(24.7006 -30.2084 14.9514)
(18.1969 -38.2177 16.3842)
(10.6039 -38.5747 14.5255)
(4.56749 -32.9086 9.47758)
(1.82773 -23.667 3.19159)
(1.97671 -13.4663 -1.7482)
(2.92897 -4.19761 -3.90612)
(2.67978 3.17545 -3.61094)
(0.57913 8.37491 -2.2675)
(-2.6641 11.4467 -1.26224)
(-5.60656 12.2689 -1.24178)
(-6.79477 10.5382 -1.75655)
(-5.75435 6.21597 -1.45771)
(-3.62375 -0.191967 0.851377)
(-2.82842 -7.73017 5.23401)
(-5.69015 -15.4075 9.99242)
(-12.4071 -22.7995 12.3684)
(-20.2518 -30.2887 10.6938)
(-25.4186 -39.0531 6.23433)
(-25.9513 -50.0196 2.58084)
(-23.2128 -62.3546 3.54482)
(-21.0218 -71.9613 10.6843)
(-25.6499 -70.7771 23.17)
(-70.138 -45.1133 66.015)
(46.4237 66.4192 23.5745)
(32.5386 62.454 9.81238)
(32.5234 49.6898 11.7374)
(32.7348 29.5478 12.4884)
(32.0114 6.58126 13.8967)
(29.4605 -14.5995 16.4821)
(24.3497 -30.2488 19.21)
(16.8377 -38.191 20.0406)
(8.71742 -38.2749 17.4003)
(2.63406 -32.1979 11.6129)
(0.201662 -22.5291 4.80505)
(0.804553 -12.0291 -0.41028)
(2.15745 -2.64423 -2.64883)
(2.13809 4.70609 -2.36074)
(0.137197 9.83774 -1.07782)
(-2.9775 12.8819 -0.209157)
(-5.622 13.7043 -0.327018)
(-6.3231 11.8954 -0.867763)
(-4.74692 7.3515 -0.382986)
(-2.27178 0.614521 2.31669)
(-1.50772 -7.24509 7.14627)
(-4.76 -15.0748 12.2055)
(-11.9625 -22.3047 14.5988)
(-20.0262 -29.3167 12.7495)
(-24.9321 -37.5285 8.19622)
(-24.8788 -48.1629 4.90658)
(-21.8115 -60.6328 6.94513)
(-20.3867 -70.9874 15.8343)
(-27.8865 -71.0869 30.425)
(-82.2768 -45.8038 79.8448)
(47.2696 69.4514 21.9382)
(35.4085 61.6994 9.70348)
(36.1507 48.1143 13.5491)
(36.1695 28.3187 16.0271)
(34.4664 5.82485 18.6734)
(30.4762 -15.1317 21.788)
(23.9003 -30.703 24.3642)
(15.2384 -38.473 24.5664)
(6.46276 -38.1892 21.0732)
(0.267647 -31.6389 14.4273)
(-1.82782 -21.5308 6.96355)
(-0.657865 -10.7546 1.36071)
(1.24863 -1.29989 -1.01988)
(1.59348 5.97569 -0.743899)
(-0.231792 11.0014 0.510223)
(-3.2027 14.0003 1.28378)
(-5.56144 14.8283 1.05528)
(-5.76709 12.9712 0.495175)
(-3.59929 8.24 1.17242)
(-0.698175 1.19283 4.29919)
(0.0871446 -6.98167 9.65368)
(-3.57011 -14.9568 15.1134)
(-11.3237 -21.9976 17.6112)
(-19.6636 -28.4884 15.6419)
(-24.288 -36.1019 11.0162)
(-23.5277 -46.3874 8.12069)
(-19.9873 -59.0295 11.3187)
(-19.3366 -70.2553 22.0918)
(-30.0761 -71.948 38.8684)
(-95.3935 -47.7549 95.0636)
(49.6307 72.1502 21.8743)
(38.8866 60.5429 10.4048)
(40.1914 46.0276 16.1318)
(39.9085 26.4753 20.3814)
(37.1306 4.39283 24.3279)
(31.5894 -16.3251 28.019)
(23.4003 -31.7416 30.4622)
(13.4154 -39.2393 30.0148)
(3.8293 -38.4908 25.5936)
(-2.56031 -31.3874 17.9605)
(-4.29619 -20.8012 9.69213)
(-2.44449 -9.74728 3.57553)
(0.172802 -0.253552 0.978374)
(1.01979 6.90042 1.22556)
(-0.550818 11.7813 2.47324)
(-3.3563 14.7141 3.18617)
(-5.42812 15.5505 2.87224)
(-5.11235 13.6743 2.3054)
(-2.28234 8.78847 3.19454)
(1.13305 1.44366 6.80058)
(1.9894 -7.05367 12.7731)
(-2.09775 -15.1888 18.743)
(-10.4803 -22.0362 21.4377)
(-19.1575 -27.984 19.4042)
(-23.4671 -34.9684 14.7298)
(-21.8506 -44.9021 12.2653)
(-17.6534 -57.7733 16.7215)
(-17.7444 -70.0063 29.5328)
(-32.0714 -73.582 48.5935)
(-109.317 -51.1902 111.68)
(53.463 74.2335 23.2551)
(43.0387 58.8555 11.8386)
(44.7375 43.3204 19.4539)
(44.0464 23.865 25.5546)
(40.0932 2.08548 30.8887)
(32.8752 -18.4039 35.2253)
(22.8995 -33.5948 37.57)
(11.3873 -40.7205 36.4551)
(0.809152 -39.4008 31.0223)
(-5.87382 -31.6389 22.2587)
(-7.2335 -20.5012 13.0186)
(-4.58429 -9.13614 6.24529)
(-1.09616 0.388403 3.3427)
(0.392931 7.38526 3.53229)
(-0.841959 12.0858 4.7865)
(-3.45491 14.9299 5.46613)
(-5.22612 15.7734 5.08928)
(-4.34596 13.9016 4.53444)
(-0.76906 8.88453 5.66907)
(3.25525 1.23979 9.82514)
(4.22892 -7.61094 16.5274)
(-0.324564 -15.9472 23.1302)
(-9.42747 -22.6227 26.12)
(-18.5078 -28.0299 24.0765)
(-22.4564 -34.3736 19.377)
(-19.8057 -43.9737 17.3869)
(-14.7282 -57.1629 23.2168)
(-15.4809 -70.5675 38.249)
(-33.7058 -76.3019 59.7266)
(-123.845 -56.4101 129.746)
(58.6744 75.3966 25.9075)
(47.9109 56.4745 13.9184)
(49.8625 39.8218 23.4874)
(48.6644 20.2532 31.5597)
(43.4372 -1.39092 38.3988)
(34.4087 -21.6929 43.479)
(22.4504 -36.5937 45.7812)
(9.17579 -43.24 43.9838)
(-2.60083 -41.2204 37.4408)
(-9.69049 -32.6532 27.3811)
(-10.6627 -20.84 16.9773)
(-7.09978 -9.08509 9.38281)
(-2.57947 0.494485 6.06965)
(-0.308006 7.31693 6.16082)
(-1.12585 11.809 7.426)
(-3.51531 14.5409 8.09248)
(-4.96114 15.384 7.67145)
(-3.45799 13.5293 7.15266)
(0.963649 8.38662 8.58157)
(5.69718 0.411989 13.3807)
(6.83061 -8.85939 20.9485)
(1.76254 -17.475 28.3248)
(-8.16671 -24.0308 31.7161)
(-17.7211 -28.9251 29.7129)
(-21.2499 -34.6376 25.0075)
(-17.3591 -43.9509 23.5412)
(-11.1396 -57.5977 30.8825)
(-12.4216 -72.3964 48.3581)
(-34.7984 -80.5752 72.4422)
(-138.747 -63.8679 149.38)
(65.1129 75.3055 29.5992)
(53.5262 53.1904 16.5387)
(55.6197 35.2712 28.2014)
(53.8285 15.2832 38.4164)
(47.2383 -6.47392 46.918)
(36.2645 -26.6764 52.8805)
(22.1086 -41.2345 55.2269)
(6.80847 -47.2773 52.735)
(-6.39619 -44.3838 44.9614)
(-14.0189 -34.7935 33.4078)
(-14.5976 -22.101 21.6133)
(-10.0053 -9.80964 13.0043)
(-4.29209 -0.10379 9.15622)
(-1.09992 6.55247 9.09659)
(-1.4213 10.8175 10.3701)
(-3.55458 13.4137 11.0363)
(-4.64132 14.2424 10.5841)
(-2.443 12.4022 10.1291)
(2.93288 7.10977 11.917)
(8.48063 -1.27177 17.4792)
(9.81218 -11.0916 26.0796)
(4.16993 -20.1222 34.3961)
(-6.70577 -26.6517 38.3076)
(-16.8107 -31.0856 36.3879)
(-19.8491 -36.1941 31.6869)
(-14.4871 -45.303 30.8001)
(-6.82976 -59.6267 39.8206)
(-8.45558 -76.153 60.0172)
(-35.1615 -87.1261 86.9805)
(-153.756 -74.2917 170.793)
(72.5529 73.5928 34.0151)
(59.8844 48.7346 19.559)
(62.0397 29.2819 33.5499)
(59.5888 8.41633 46.1435)
(51.564 -13.8241 56.5191)
(38.5147 -34.0945 63.5587)
(21.933 -48.2864 66.0788)
(4.32042 -53.5721 62.8867)
(-10.562 -49.547 53.7329)
(-18.8558 -38.5934 40.4439)
(-19.0405 -24.6868 26.9845)
(-13.3057 -11.6045 17.1296)
(-6.2419 -1.63168 12.5991)
(-1.99532 4.90005 12.3251)
(-1.74523 8.92932 13.5987)
(-3.59009 11.3664 14.2694)
(-4.2776 12.1612 13.7908)
(-1.30107 10.3141 13.4285)
(5.14799 4.80363 15.6569)
(11.6181 -4.13921 22.1344)
(13.1819 -14.7365 31.9747)
(6.89566 -24.4123 41.4332)
(-5.05908 -31.0702 46.0015)
(-15.7958 -35.1172 44.1997)
(-18.2631 -39.6559 39.5004)
(-11.1778 -48.6862 39.2565)
(-1.75982 -64.0326 50.1638)
(-3.4949 -82.8208 73.4309)
(-34.6107 -97.1038 103.654)
(-168.548 -88.8898 194.293)
(80.6841 69.8662 38.7114)
(66.9658 42.7726 22.7759)
(69.1316 21.2842 39.4494)
(65.9799 -1.16936 54.7383)
(56.4733 -24.4657 67.2743)
(41.2284 -45.1174 75.6629)
(21.9849 -58.9854 78.5438)
(1.75509 -63.3162 74.6566)
(-15.0717 -57.7525 63.94)
(-24.1862 -44.8831 48.6198)
(-23.9828 -29.2036 33.1617)
(-16.9966 -14.897 21.7812)
(-8.43001 -4.40857 16.3922)
(-3.00253 2.08451 15.8275)
(-2.1127 5.8766 17.0867)
(-3.63923 8.13154 17.7572)
(-3.88356 8.87344 17.2458)
(-0.0379601 6.97737 17.0049)
(7.61012 1.11349 19.7733)
(15.1123 -8.67302 27.3559)
(16.9382 -20.4487 38.6921)
(9.92905 -31.1617 49.5387)
(-3.24722 -38.2024 54.9238)
(-14.7003 -41.9497 53.2665)
(-16.5073 -45.94 48.553)
(-7.43028 -55.0741 49.0282)
(4.09002 -71.997 62.0821)
(2.51959 -93.937 88.8556)
(-32.9725 -112.393 122.843)
(-182.713 -109.726 220.276)
(89.108 63.7572 43.0025)
(74.7426 34.9067 25.882)
(76.8918 10.4204 45.7825)
(73.032 -14.7832 64.2237)
(62.0235 -40.0811 79.3464)
(44.4721 -61.7118 89.4876)
(22.3256 -75.4412 93.007)
(-0.840295 -78.554 88.4481)
(-19.8957 -70.7788 75.9358)
(-29.9933 -55.0595 58.1968)
(-29.4146 -36.6472 40.304)
(-21.0713 -20.3656 27.0319)
(-10.8539 -8.92948 20.5547)
(-4.12659 -2.32207 19.5971)
(-2.53674 1.23746 20.813)
(-3.71863 3.29034 21.464)
(-3.47454 3.97118 20.9005)
(1.33657 1.95999 20.8116)
(10.3159 -4.50151 24.2508)
(18.9622 -15.6372 33.1903)
(21.0762 -29.2975 46.3578)
(13.2557 -41.7285 58.9121)
(-1.29492 -49.5788 65.3141)
(-13.5527 -53.1221 63.8308)
(-14.6036 -56.5438 59.0836)
(-3.2487 -66.0545 60.3922)
(10.7345 -85.4747 75.9516)
(9.63237 -112.1 106.811)
(-30.0777 -136.269 145.237)
(-195.73 -140.503 249.479)
(97.3667 55.0824 45.5486)
(83.1986 24.6965 28.418)
(85.3423 -4.69184 52.71)
(80.8069 -34.6981 75.3325)
(68.2944 -63.7106 94.024)
(48.3207 -87.5166 106.777)
(23.0125 -101.605 111.476)
(-3.43413 -103.136 106.283)
(-25.0338 -91.9795 91.5119)
(-36.2977 -71.7399 70.566)
(-35.3587 -48.8584 49.3621)
(-25.5433 -29.2353 33.4623)
(-13.5171 -16.0635 25.4283)
(-5.37022 -9.05931 23.8573)
(-3.02637 -5.71039 24.9459)
(-3.84289 -3.86568 25.5225)
(-3.06657 -3.22582 24.8686)
(2.81384 -5.45529 24.9952)
(13.2715 -12.9639 29.3737)
(23.1868 -26.3818 40.1782)
(25.6154 -43.2177 55.8382)
(16.8781 -58.6009 70.7203)
(0.77537 -68.0114 78.5153)
(-12.3911 -71.4656 77.2887)
(-12.5815 -74.225 72.5194)
(1.37743 -84.5743 74.9602)
(18.2356 -108.131 93.831)
(17.9429 -142.211 130.006)
(-25.7012 -174.957 174.192)
(-206.955 -188.388 285.587)
(105.071 44.281 42.7973)
(92.3413 11.7126 29.7329)
(94.6222 -26.5391 62.4339)
(89.4794 -65.3348 93.1284)
(75.4451 -101.506 119.05)
(52.8825 -130.036 137.371)
(24.0887 -145.691 144.92)
(-6.0591 -145.111 139.053)
(-30.5965 -128.393 120.297)
(-43.2515 -100.412 93.2671)
(-41.9523 -69.6802 65.6012)
(-30.4968 -44.028 44.4474)
(-16.4477 -27.5526 33.1841)
(-6.73178 -19.5647 30.2059)
(-3.5797 -16.3339 30.8529)
(-4.02232 -14.6566 31.1779)
(-2.67663 -13.9803 30.343)
(4.39519 -16.6159 30.9366)
(16.5245 -26.0674 37.2178)
(27.8821 -43.6112 51.692)
(30.6665 -66.1419 72.1755)
(20.8648 -86.8674 91.5457)
(2.95598 -99.2589 102.024)
(-11.2807 -102.819 101.397)
(-10.4908 -104.731 96.7482)
(6.51456 -116.848 101.511)
(26.8265 -147.737 126.784)
(27.7823 -194.641 172.967)
(-19.4028 -241.559 227.666)
(-215.487 -268.406 348.522)
(112.226 33.2331 24.4584)
(102.08 -4.34771 28.8413)
(105.048 -60.1475 84.603)
(99.3682 -116.19 138.1)
(83.7193 -167.069 184.937)
(58.2865 -206.067 219.555)
(25.55 -226.173 235.745)
(-8.86808 -222.647 228.729)
(-36.8772 -195.969 199.342)
(-51.2127 -153.524 155.327)
(-49.5032 -107.823 109.34)
(-36.1119 -70.4217 73.1076)
(-19.6926 -47.2399 52.3947)
(-8.18404 -36.9135 45.0932)
(-4.16504 -33.4779 44.185)
(-4.25728 -31.7912 43.6751)
(-2.32835 -30.887 42.3906)
(6.08793 -34.3421 44.4116)
(20.1777 -47.6837 56.1806)
(33.2612 -73.2827 81.062)
(36.4841 -106.8 115.086)
(25.3883 -137.849 147.002)
(5.25138 -156.147 164.951)
(-10.3555 -160.274 166.192)
(-8.44521 -161.086 162.187)
(12.2911 -177.093 173.737)
(37.0081 -222.131 217.186)
(39.887 -293.072 291.437)
(-10.3913 -365.796 374.782)
(-219.492 -412.6 515.142)
(389.85 998.186 1378.5)
(-74.9402 883.412 1075.5)
(-251.397 668.543 776.906)
(-265.629 428.986 497.504)
(-194.443 232.283 289.424)
(-100.011 109.89 172.592)
(-26.2643 56.0861 127.853)
(10.8655 43.2614 117.853)
(20.159 42.1952 111.969)
(19.1045 35.8408 100.304)
(20.8433 24.7065 85.0515)
(33.1691 18.4264 72.3891)
(57.3158 28.7119 75.0922)
(83.0932 61.4438 105.377)
(92.1733 111.366 162.576)
(70.2342 162.337 227.313)
(20.2607 194.643 270.351)
(-34.1347 196.855 271.9)
(-63.7105 176.053 240.497)
(-59.3713 152.906 209.358)
(-38.8708 144.382 202.801)
(-27.3588 151.313 219.384)
(-39.028 158.836 240.552)
(-71.6748 148.085 244.527)
(-111.422 107.26 219.309)
(-141.268 40.1801 164.009)
(-148.633 -37.6786 89.0505)
(-134.361 -109.176 12.8825)
(-110.685 -165.321 -55.1424)
(-87.9498 -206.073 -87.6256)
(395.923 808.909 1116.48)
(-43.3609 714.343 849.528)
(-207.612 537.882 607.468)
(-223.32 339.217 388.316)
(-162.72 174.353 229.456)
(-81.3254 71.0012 143.437)
(-17.7414 26.0122 112.782)
(14.0769 16.7984 107.247)
(21.8079 18.2565 102.75)
(20.6057 14.4472 92.4181)
(21.7554 5.75211 78.5087)
(32.087 1.35613 66.05)
(52.791 11.3158 65.6162)
(74.9116 39.6899 87.6148)
(82.1908 81.19 132.049)
(61.8646 122.412 183.442)
(16.5857 147.886 217.859)
(-32.5548 149.184 218.866)
(-59.4208 132.36 193.441)
(-55.9606 113.193 169.159)
(-38.0861 105.302 165.628)
(-28.0756 109.873 181.172)
(-38.4221 114.402 200.951)
(-67.2062 102.878 207.605)
(-102.284 65.0724 191.532)
(-128.672 5.38599 151.337)
(-135.056 -61.6304 94.892)
(-122.026 -121.261 36.4326)
(-100.474 -166.063 -16.7024)
(-80.5128 -199.804 -37.7763)
(392.025 659.161 931.088)
(-15.1939 582.499 689.969)
(-167.077 435.447 487.991)
(-183.828 268.329 309.968)
(-132.473 127.833 184.035)
(-62.5606 38.8047 118.618)
(-8.08456 0.257474 97.917)
(18.5975 -6.47755 96.4237)
(24.1253 -3.26668 93.8968)
(21.9102 -4.86185 84.485)
(22.0448 -11.1021 70.7681)
(30.551 -13.473 57.8813)
(48.2791 -3.40106 55.3564)
(67.1232 21.7484 72.0508)
(72.6995 56.7533 107.89)
(53.8096 90.386 149.916)
(12.8873 110.503 178.102)
(-31.2718 111.034 178.611)
(-55.4177 97.1679 157.512)
(-52.5243 80.8735 138.183)
(-36.8544 73.1775 136.9)
(-28.2078 75.5279 151.964)
(-37.6649 77.2554 170.791)
(-63.5252 64.5479 178.704)
(-94.8775 28.6906 167.297)
(-118.172 -25.4752 135.535)
(-123.241 -84.3131 90.4989)
(-110.71 -134.757 43.8474)
(-90.4995 -170.375 1.42841)
(-73.2183 -197.757 -13.4112)
(380.69 549.143 795.563)
(8.89466 487.797 573.734)
(-130.055 361.787 400.855)
(-147.382 216.928 251.81)
(-104.085 93.374 148.622)
(-44.228 13.9557 97.4952)
(2.153 -20.6204 84.2116)
(23.9664 -26.0954 86.3829)
(26.9172 -21.9124 85.9295)
(23.1313 -21.6004 77.0907)
(21.9779 -25.3626 62.8953)
(28.7979 -25.562 49.2146)
(43.9148 -14.9534 45.1945)
(59.8001 8.06194 58.3965)
(63.7657 38.4353 88.3081)
(46.1445 66.5859 123.604)
(9.2428 82.794 147.168)
(-30.2339 82.728 147.225)
(-51.7209 70.8717 129.321)
(-49.1729 56.4203 113.668)
(-35.3682 48.5096 114.161)
(-27.9803 48.7455 129.165)
(-36.9248 47.871 147.395)
(-60.6328 33.6904 155.72)
(-89.0255 -1.10888 146.373)
(-109.571 -51.5013 119.149)
(-113.15 -104.708 81.237)
(-100.597 -148.637 42.7261)
(-81.171 -177.205 8.18876)
(-65.9495 -198.591 -3.13513)
(363.983 468.47 688.786)
(28.8769 420.578 482.822)
(-96.5502 309.91 332.521)
(-113.956 180.597 205.545)
(-77.696 68.5557 119.389)
(-26.6706 -4.77102 79.0127)
(12.5141 -37.3606 71.67)
(29.7722 -42.6564 77.1372)
(29.9972 -38.1458 78.5869)
(24.3541 -36.1262 70.0889)
(21.7754 -37.3019 55.1454)
(27.0147 -35.1303 40.565)
(39.7799 -23.6357 35.3905)
(52.9543 -1.97348 46.0865)
(55.3918 25.0885 71.5872)
(38.893 49.2728 101.703)
(5.70415 62.6409 121.606)
(-29.3809 62.1238 121.252)
(-48.3121 51.6018 105.874)
(-45.9676 38.2496 93.1384)
(-33.7808 29.7923 95.1338)
(-27.5849 27.9144 110.301)
(-36.3241 24.5313 128.108)
(-58.469 8.74888 136.323)
(-84.4819 -25.4838 127.688)
(-102.592 -73.2353 103.024)
(-104.639 -122.584 69.9764)
(-91.7578 -161.956 37.6044)
(-72.7511 -185.011 9.32048)
(-59.0035 -200.348 0.442764)
(343.486 407.983 599.372)
(44.9725 372.277 407.719)
(-66.5882 273.421 276.002)
(-83.566 155.184 166.958)
(-53.4323 50.9595 94.4532)
(-10.1773 -18.7366 62.6856)
(22.6073 -50.8313 60.2713)
(35.6576 -56.8259 68.5967)
(33.1867 -52.4555 71.6301)
(25.6172 -48.8409 63.3226)
(21.5885 -47.2917 47.6112)
(25.3331 -42.5442 32.2044)
(35.9328 -29.8859 26.113)
(46.5988 -9.04291 34.8581)
(47.592 15.582 56.8346)
(32.0897 36.8147 82.715)
(2.32401 48.0817 99.5564)
(-28.6614 47.2228 98.8454)
(-45.172 37.5712 85.5986)
(-42.9477 24.7993 75.3242)
(-32.2025 15.532 78.6406)
(-27.1594 11.4799 94.0391)
(-35.9328 5.61633 111.449)
(-56.9492 -11.7715 119.198)
(-81.017 -45.6578 110.596)
(-96.9812 -91.4444 87.5287)
(-97.5727 -138.1 58.174)
(-84.2398 -174.267 30.8406)