/*--------------------------------*- C++ -*----------------------------------*\
| =========                 |                                                 |
| \\      /  F ield         | OpenFOAM: The Open Source CFD Toolbox           |
|  \\    /   O peration     | Version:  2106                                  |
|   \\  /    A nd           | Website:  www.openfoam.com                      |
|    \\/     M anipulation  |                                                 |
\*---------------------------------------------------------------------------*/
FoamFile
{
    version     2.0;
    format      ascii;
    arch        "LSB;label=32;scalar=64";
    class       volSymmTensorField;
    location    "1672";
    object      epsilon;
}
// * * * * * * * * * * * * * * * * * * * * * * * * * * * * * * * * * * * * * //

dimensions      [0 0 0 0 0 0 0];

internalField   nonuniform List<symmTensor> 
9000
(
(-1.91193e+06 -31024.6 628195 -2.95674e+06 1.12443e+06 9.61263e+06)
(-446110 -6655.96 -463752 -2.67883e+06 1.00692e+06 7.44703e+06)
(-104755 -8773.03 -1.05541e+06 -2.04169e+06 762380 5.42492e+06)
(40189.2 -7156.27 -1.0817e+06 -1.35982e+06 488054 3.48795e+06)
(102001 -3337.37 -784905 -828474 264052 2.03019e+06)
(101548 283.932 -405786 -512517 126028 1.20188e+06)
(66134.5 2333.44 -115000 -374118 66763.4 877471)
(26920.3 2338.99 27658.5 -328328 54298.3 801424)
(3841.7 775.086 59822.2 -302107 54226.5 760049)
(-283.562 -1044.25 52625.2 -269099 46312.7 679561)
(8528.8 -1941.83 58436 -231974 31494 573897)
(22538.2 -1560.91 107891 -204518 22051.9 488368)
(30859.1 -326.732 205813 -216109 32331.6 511804)
(22182.3 958.669 312062 -293770 69096.6 725906)
(-5695.36 1624.66 354121 -434163 125917 1.12312e+06)
(-40155.2 1352.7 274907 -591241 184014 1.56948e+06)
(-59056.5 304.665 85249.1 -697407 220753 1.86579e+06)
(-47303.8 -742.521 -122507 -707386 223198 1.87853e+06)
(-13412.6 -832.358 -233132 -640184 199768 1.66655e+06)
(15479.5 156.77 -210947 -571015 174311 1.45453e+06)
(19375.8 1409.97 -126421 -555226 166050 1.40814e+06)
(98.312 1951.8 -78811.1 -590188 175649 1.51877e+06)
(-26337.6 1212.86 -123697 -634075 185901 1.65904e+06)
(-43254 -635.901 -251862 -636388 174659 1.67829e+06)
(-41806.3 -2637.23 -408523 -568651 127975 1.49254e+06)
(-23036.2 -3639.68 -527223 -427996 50451.5 1.09784e+06)
(2429.05 -3286.21 -559338 -238128 -39049.7 569623)
(22248.9 -2101.33 -508991 -41716.3 -120694 35050)
(35067.5 487.514 -410053 136639 -183752 -443516)
(130919 -4006.62 -153319 188828 -225644 -659103)
(-1.64517e+06 -42535.8 649280 -1.77771e+06 1.81679e+06 7.39856e+06)
(-414945 13749.7 -307379 -1.59089e+06 1.62349e+06 5.52721e+06)
(-97733.3 23155.7 -840812 -1.22189e+06 1.21952e+06 3.97998e+06)
(32714.4 23580.1 -875367 -824923 757571 2.55478e+06)
(87427.7 20629.3 -631464 -516965 373029 1.51504e+06)
(87297.6 16621.6 -316856 -334464 133157 947964)
(56665.8 12945.5 -75898.3 -253419 32332.2 742210)
(22788 9271.13 41343.4 -224598 17891.1 702086)
(2938.72 4623.21 66948.9 -206531 27641.6 670922)
(-597.068 -40.9384 60140.1 -185040 19534.2 602974)
(7000.47 -2707.74 63730.3 -161476 -4730.15 512429)
(19184.3 -3343.84 103538 -143340 -18796.9 432216)
(26469 -3744.02 184412 -147727 3524.94 430864)
(18810 -5019.52 272534 -191189 70222.7 575247)
(-5837.67 -6296.59 305639 -272593 166282 864726)
(-36337.2 -5958.77 234266 -365137 259803 1.19877e+06)
(-53033.5 -3498.58 67590.1 -428552 316330 1.42266e+06)
(-42508.9 5.44721 -114497 -435572 318450 1.43046e+06)
(-12354.9 2620.6 -212135 -397176 281170 1.26729e+06)
(13309.1 3336.9 -194710 -358009 239281 1.11075e+06)
(16846.8 2891.65 -123460 -350460 223077 1.08757e+06)
(-4.16415 2093.81 -83336.7 -372721 235425 1.18735e+06)
(-23124.1 1021.59 -121450 -401258 246472 1.31407e+06)
(-37939.2 -307.274 -230035 -407354 217102 1.3551e+06)
(-36722.1 -798.363 -363136 -374188 121749 1.24799e+06)
(-20237.4 979.685 -464608 -298083 -26494.3 984016)
(2315.74 4323.35 -492116 -191119 -188065 614441)
(19889.8 7577.43 -448288 -76139.8 -327112 230936)
(29117.3 9308.45 -361504 31216.3 -425700 -121586)
(56309 -3184.16 -137380 73666.8 -501294 -245274)
(-1.50175e+06 -46862.9 643706 -1.01075e+06 1.76462e+06 6.13133e+06)
(-381718 18800.3 -192765 -887618 1.58127e+06 4.44104e+06)
(-90707.8 33942.6 -679415 -686959 1.17762e+06 3.16447e+06)
(27002 33878.6 -718898 -472360 711254 2.01906e+06)
(75655.9 28707.3 -512209 -308551 316868 1.20419e+06)
(75495.5 22958 -243473 -213723 67877.4 778277)
(48412 18306.8 -38673.5 -172431 -35841.4 640862)
(18503.9 13700.8 58408.6 -157545 -46706.9 628195)
(1109.47 7388.55 75564.2 -146787 -30362.3 610020)
(-1701.57 758.566 64997.9 -132417 -33924.4 548542)
(5401.55 -3004.44 64801.6 -115712 -55870.4 460027)
(16460.3 -3853.24 97573.6 -101576 -66598.2 377395)
(22966 -4623.34 166772 -100270 -38965.7 361759)
(16063.8 -6984.83 241917 -121627 32539.3 469787)
(-5941.61 -9425.63 268212 -165377 130009 700791)
(-33086 -9216.35 202478 -216653 221215 971432)
(-47834.3 -5441.75 53077.9 -252590 274177 1.1532e+06)
(-38216.2 54.5202 -109217 -257357 274579 1.15749e+06)
(-11115.7 3891.76 -196107 -237129 237939 1.02315e+06)
(11815.3 4516.39 -181082 -217319 195373 899742)
(14882 3428.8 -118755 -215829 176124 891606)
(-249.48 1886.26 -84117.7 -231424 184383 988047)
(-20928 -100.114 -118632 -251655 189175 1.10837e+06)
(-34089.8 -2412 -215448 -261109 149614 1.15825e+06)
(-32766.9 -3191.78 -333550 -249488 39441.4 1.08383e+06)
(-17682.7 -243.743 -422501 -213422 -123962 878442)
(2799.12 5297.13 -444643 -158807 -295735 587275)
(18669.5 10867.2 -402744 -96211.5 -437100 284625)
(24558 13004.8 -322395 -33316.8 -529902 5598.24)
(29746.8 -60.6973 -124805 1100.66 -606059 -75195.5)
(-1.36217e+06 -49246.9 623372 -620415 1.50302e+06 5.26063e+06)
(-347455 19069.4 -100140 -532402 1.35846e+06 3.70166e+06)
(-83224.1 38216.6 -541037 -412805 1.001e+06 2.60863e+06)
(22342.7 37941.6 -583409 -287675 582687 1.64679e+06)
(65616.6 31592.4 -407071 -194251 222414 976535)
(65324.5 25392.5 -175834 -142640 -8829.91 641980)
(41048.2 20859.5 -1030.12 -122414 -105412 552415)
(14215.4 16215.5 78070 -116844 -113229 563662)
(-1263.9 9297.38 85582.8 -111883 -93380.7 558964)
(-3293.23 1784.56 69034.4 -101218 -91185.4 501178)
(3764.79 -2483.02 64110.6 -86646.7 -106100 409479)
(14119 -3444.02 90899.1 -73350 -110059 321539)
(19965.2 -4533.75 150686 -69131 -78999.9 296150)
(13627.2 -7708.89 214935 -80132.6 -10461.3 381868)
(-6086.59 -11048.1 235166 -105645 77323.8 575258)
(-30192.4 -11107.9 174045 -136341 155759 803268)
(-43096.5 -6653.91 39581.9 -158255 198996 955723)
(-34196 -16.3325 -105213 -161609 197516 957023)
(-9787.72 4438.35 -182159 -150477 165314 842755)
(10680.2 4855.64 -168464 -140390 126250 742634)
(13201.1 3264.11 -113158 -142106 105143 745957)
(-666.238 1089.89 -83281.1 -154962 106881 842308)
(-19460.9 -1780.55 -115992 -171343 103171 959120)
(-31222.4 -4999.36 -204944 -181685 56224.9 1.01172e+06)
(-29523.6 -6083.86 -312064 -178166 -56758.7 950357)
(-15231.9 -2422.56 -390517 -158881 -216586 773622)
(3732 4643.08 -406683 -128170 -379085 527557)
(18121.5 12057.2 -364334 -90963.7 -506538 276786)
(21446.5 14853.4 -287916 -49623.5 -581549 48714.5)
(16217.7 2832.52 -112744 -17471.5 -643930 -9792.39)
(-1.22373e+06 -50263.5 593689 -406670 1.26317e+06 4.57232e+06)
(-312694 17365.3 -23375.4 -335346 1.16084e+06 3.12323e+06)
(-75228.9 38414.1 -417324 -257082 847137 2.1722e+06)
(18440.7 38126 -460777 -179643 473247 1.35012e+06)
(56766.3 31289.1 -310711 -124025 144792 788157)
(56321.7 25250.8 -111964 -96174.4 -70570.7 522346)
(34377.9 21281.2 36583 -88749.7 -162590 471117)
(10033.6 17085.2 99088.1 -90027.5 -170546 503853)
(-3887.57 10388.6 96492.7 -89443.3 -149928 511577)
(-5127.88 2933.36 72943.3 -80781.5 -142249 456024)
(2129.38 -1348.11 62854.2 -66494.8 -148578 359443)
(12012.3 -2418.67 84181.3 -52807.6 -144343 265568)
(17259.1 -3891.6 135692 -46769 -109547 232659)
(11359.4 -7711.13 190118 -52415 -44139.3 302381)
(-6287.5 -11697.4 204647 -68348.8 34387.8 467783)
(-27551.2 -12043.1 147508 -87929.3 101250 662957)
(-38668 -7314.44 26642.7 -102046 135970 792162)
(-30369.1 -133.184 -101938 -104429 132993 790748)
(-8436.08 4522.46 -169437 -98191.5 104522 692357)
(9738.72 4665.83 -156533 -93396 68205.4 610728)
(11664.1 2635.86 -107241 -97079.9 44768.5 623731)
(-1243.9 -84.9962 -81841.3 -109011 39382.5 721333)
(-18513.3 -3678.37 -113970 -123628 26918.1 835641)
(-29013.9 -7508.11 -197401 -133859 -26716 887595)
(-26752.1 -8727.14 -295824 -133108 -140098 830617)
(-12867.9 -4683.16 -364982 -121150 -293796 669890)
(4929.64 3255.78 -374959 -102247 -446041 454551)
(17976 11971.9 -330926 -78524.2 -560209 242942)
(19335.8 15768.7 -257044 -48455.5 -618140 55466.3)
(8714.5 4738.23 -101050 -14836.4 -661227 12193.3)
(-1.09015e+06 -49783.7 557816 -279081 1.08154e+06 3.98909e+06)
(-278205 14848.9 39634.2 -217001 1.01934e+06 2.64081e+06)
(-66879.6 35711.3 -306747 -160805 740064 1.80737e+06)
(15202.8 35403.4 -349514 -110624 398199 1.10002e+06)
(48892.2 28609.8 -222417 -77104.5 91515.1 625846)
(48277.9 23128.9 -52243.6 -63609 -114766 415706)
(28319.6 19976.1 73004.7 -64708.8 -206866 396572)
(6059.97 16582 120220 -71101.8 -218241 448036)
(-6538.55 10757.6 107679 -73598.9 -198884 466183)
(-7016.55 4096.67 76946.8 -66060.7 -186124 411946)
(541.833 192.381 61662.1 -51500.3 -183103 310407)
(10069.7 -977.553 77884.6 -37120.9 -169776 211120)
(14758.2 -2872.75 121833 -29794.1 -130478 172201)
(9220.12 -7190.38 167202 -32342 -66927.4 229338)
(-6531.88 -11603.9 176341 -42811.5 4653.63 372137)
(-25125.6 -12221.8 122698 -55931.1 62852.3 540188)
(-34519.3 -7523.98 14328.7 -65373 91288.9 649772)
(-26741.2 -266.499 -99151.1 -67090.5 87234.4 645966)
(-7109.49 4280.49 -157728 -63720.4 61172.2 561083)
(8913.48 4114.85 -145318 -62069 26143.8 495166)
(10211.4 1693.71 -101393 -67103.2 -383.479 516711)
(-1956.43 -1494.43 -80338.4 -78866.2 -13216 615918)
(-17944.2 -5616.03 -112792 -92614.2 -34396 727772)
(-27269.5 -9757.99 -192296 -102246 -94369 776802)
(-24335.1 -10971.9 -283569 -102169 -207806 720020)
(-10633.4 -6825.7 -344434 -93633.1 -356170 569437)
(6223.87 1434.73 -348424 -81151.3 -500650 377757)
(18052.2 10996.3 -302197 -65296.5 -605050 198686)
(17742.5 16043.6 -229974 -41579.4 -648602 46364.5)
(3796.9 5628.54 -90499.6 -5087.44 -669143 17745.6)
(-963943 -47928.2 518129 -197312 946324 3.47896e+06)
(-244766 12275.7 90399.9 -142179 921467 2.22847e+06)
(-58415.8 31225.5 -209023 -98272.9 670115 1.49616e+06)
(12577.8 30695 -249492 -64332.2 350823 886294)
(41897.7 24259.9 -142374 -44385.2 57899.8 485766)
(41080.5 19544.8 2604.92 -39978.5 -144832 321879)
(22834.6 17331.3 107128 -46850.4 -240813 329447)
(2376.84 14998.8 140409 -56864.3 -258158 396292)
(-9052.05 10529.5 118565 -61333.3 -241372 422385)
(-8817.26 5191.15 81062.2 -54468.8 -223784 368814)
(-952.148 1958.89 60869.8 -39665.3 -210920 263060)
(8261.73 723.494 72304.3 -24750.1 -187855 159521)
(12425.3 -1598 109216 -16518.5 -143373 115917)
(7204.7 -6299.03 146182 -17096.1 -80551.6 162685)
(-6801.66 -10976.8 150261 -24200.7 -14066.7 286419)
(-22902.7 -11844.5 99710 -33321.3 37708.7 431267)
(-30658.3 -7390.87 2800.25 -39802.9 61588.7 523851)
(-23338.3 -396.239 -96693.1 -41112.2 56749.5 518068)
(-5843.01 3826 -146946 -39613 32025 445188)
(8163.04 3329.92 -134880 -40008.2 -2903.08 393147)
(8815.16 547.763 -95866.8 -46005.2 -33185.9 422321)
(-2775.06 -3037.39 -79094.6 -57781.3 -53752.3 522866)
(-17651 -7491.18 -112545 -70905.4 -83586.6 631710)
(-25861.3 -11684.7 -189233 -79637 -149435 676101)
(-22208.8 -12797.2 -274484 -79425.9 -262709 617358)
(-8577.97 -8763.51 -328003 -72648.2 -406585 474035)
(7479.85 -599.447 -326540 -64018.6 -545467 302153)
(18199.5 9450.82 -278136 -53149.5 -643004 151682)
(16236.9 15852 -207143 -33300.7 -674287 31525.4)
(-841.06 5658.44 -82038.4 6298.64 -669512 20612.1)
(-846138 -45004.1 476564 -141769 843714 3.025e+06)
(-212988 10097.7 130534 -93518.9 852982 1.8726e+06)
(-50088.7 25894.9 -123758 -56972.2 625721 1.22976e+06)
(10501.1 24835.5 -160612 -32873.3 322999 704292)
(35710 18877.9 -70734.7 -21337.8 38548.3 366559)
(34643.4 14984.3 52023.8 -22631.1 -164339 241303)
(17890.2 13731.6 138096 -33188 -266781 270442)
(-960.554 12623.3 158828 -45460.1 -291777 348906)
(-11315.1 9823.11 128647 -51006.3 -278272 380298)
(-10429.4 6140.54 85180 -44604.8 -256010 326886)
(-2311.68 3785.69 60604.2 -29838.6 -233074 218022)
(6581.6 2543.44 67587.4 -14752 -199917 111702)
(10248.1 -169.069 97911.9 -5972.47 -149772 64687)
(5318.49 -5159.04 127080 -5220.03 -86847.9 102736)
(-7080.78 -9988.07 126454 -10095.7 -24158.1 209965)
(-20874.8 -11083.5 78651.8 -16589.6 22735 334553)
(-27095.4 -7016.25 -7800.45 -21128.9 43242.8 412224)
(-20181.7 -518.087 -94443.6 -22257.1 37758.4 404936)
(-4658.98 3240.41 -137020 -22134.4 13519.7 343014)
(7462.84 2410.6 -125235 -23985.1 -22224.5 303525)
(7460.32 -701.228 -90804.2 -30642.9 -56769.7 339526)
(-3673.2 -4614.29 -78285.1 -42303.8 -85224.9 440763)
(-17555.5 -9223.89 -113211 -54696 -123513 545683)
(-24699.2 -13266.9 -187848 -62314.1 -194621 584098)
(-20331 -14222.3 -267927 -61672.3 -307433 522302)
(-6737.88 -10451.1 -315009 -55921.7 -447394 384866)
(8597.28 -2672.04 -308851 -49827.6 -582232 230601)
(18283.4 7594.1 -258688 -42361.3 -675009 106327)
(14446.6 15334.5 -188957 -25134.4 -695503 16914.6)
(-6972.5 4988.75 -76541.6 17169.6 -662996 29206.7)
(-736985 -41336.7 434713 -101859 764761 2.61662e+06)
(-183292 8503.82 161756 -61377.3 804056 1.56432e+06)
(-42123.3 20400.2 -50248.1 -29922 598351 1.00261e+06)
(8888.4 18502.8 -82543.6 -11811.6 308491 551202)
(30252.5 13004.7 -7435.16 -5319.08 29215.5 267491)
(28883.8 9883.17 95711.8 -9925.77 -176083 174412)
(13446.4 9537.75 165329 -22480.2 -286475 220239)
(-3927.21 9717.7 174870 -35802.3 -319982 306414)
(-13261.5 8737.99 137493 -41732.9 -310012 340467)
(-11788.4 6872.15 89093.9 -35715.5 -283208 286735)
(-3501.98 5520.69 60822.1 -21338.5 -250255 175923)
(5037.94 4350.57 63748.2 -6507.38 -206976 68344.4)
(8228.84 1323.21 87931.5 2472.77 -150917 19136.7)
(3569.99 -3863.98 109901 4138.61 -87277.7 49816.7)
(-7356.23 -8762.65 104947 843.08 -27415.7 142547)
(-19034.8 -10069.5 59594 -3818.04 15708.7 249221)
(-23836.2 -6484.79 -17372.2 -7050.5 33662 313731)
(-17282.5 -639.732 -92311.6 -8187.8 27530.5 305410)
(-3567.72 2576.62 -127880 -9184.21 3036.11 253625)
(6800.5 1436.4 -116353 -12144 -34274.1 225661)
(6140.33 -1954.55 -86243 -19200.8 -73431.2 267778)
(-4628.08 -6119.17 -77958.3 -30474.9 -109711 368905)
(-17599.6 -10741.5 -114692 -41865.8 -156017 468855)
(-23719.5 -14501.4 -187796 -48207.5 -231645 500266)
(-18669.1 -15281 -263364 -47037.8 -343668 434919)
(-5130.94 -11867.9 -304870 -41979.3 -480143 302819)
(9506.93 -4653.52 -294898 -37695.4 -612105 164989)
(18184.1 5619.96 -243695 -32735 -701718 65557.4)
(12047.9 14602.4 -175711 -17594.2 -712598 6628.87)
(-16025.2 3747.77 -74748.8 26597.9 -650481 49459.5)
(-636463 -37200.9 393889 -71406.9 704222 2.24696e+06)
(-155940 7492.52 185791 -39922.8 768313 1.29726e+06)
(-34699.4 15187.4 12501 -12776.6 581966 810638)
(7643.72 12214.6 -14683.6 1681.97 302668 424942)
(25439.4 7079.19 47828.4 5423.89 26666.4 188004)
(23716.3 4613.54 133625 -748.76 -182202 121591)
(9451.75 5068.52 188507 -13942.2 -301124 179591)
(-6527.61 6507.08 188127 -27300.9 -343300 269670)
(-14866.2 7352.95 144735 -33089.7 -336772 303837)
(-12860.8 7321.84 92522.9 -27438.8 -305582 249239)
(-4494.7 7031.64 61341.8 -13778.4 -262927 137468)
(3650.07 6025.94 60685.5 393.539 -209802 30004.4)
(6380.79 2796.61 79226.1 9250.58 -147798 -20280.8)
(1970.13 -2487.2 94619.8 11521.6 -83001.2 4215.76)
(-7617.31 -7389.67 85736.3 9403.61 -25199.5 84144.2)
(-17375.4 -8897.64 42566.1 6092.88 15019.7 174895)
(-20880 -5863.52 -25857.5 3759.7 31000.6 227762)
(-14642 -772.054 -90231 2472.13 24107 218822)
(-2568.37 1872.15 -119449 519.78 -1317.98 176435)
(6174.66 474.171 -108155 -3314.36 -40830.2 159133)
(4855.68 -3118.18 -82125.8 -10540.6 -84803 206775)
(-5621.49 -7447.6 -78049.7 -21122 -128602 307024)
(-17743.8 -11978.5 -116822 -31208.3 -182234 401033)
(-22878.5 -15392.5 -188758 -36142.5 -261540 424682)
(-17194.8 -16008.4 -260340 -34412.2 -372447 355611)
(-3757.21 -13004.4 -297061 -29872.7 -505801 228738)
(10166.2 -6448.72 -284193 -26964.1 -635821 106786)
(17797.6 3668.91 -232883 -24005.7 -723575 31630.8)
(8757.9 13733.5 -167564 -10863.9 -725970 3835.01)
(-29171.6 2027.33 -77253.6 34096.9 -633104 85936.7)
(-544526 -32817.8 355168 -46746.5 659071 1.91182e+06)
(-131087 6949.07 204287 -25484.9 741574 1.0667e+06)
(-27943.8 10525.2 65697.1 -2639.35 572217 650630)
(6669.72 6352.75 43816 9569.33 302032 323802)
(21177.9 1446.04 95583.3 12142.4 28406.5 127619)
(19051.9 -520.825 165947 5682.06 -184363 83212.5)
(5843.62 589.204 207537 -7101.58 -311674 149371)
(-8792.64 3175.39 198350 -19697.7 -362111 239828)
(-16137.9 5730.46 150054 -24949 -358680 271694)
(-13638 7439.47 95130.8 -19657.8 -323284 215523)
(-5268.01 8211.59 61872.9 -6968.93 -271452 103460)
(2444.52 7467.85 58200.8 6211.69 -209010 -2811.55)
(4725.7 4177.38 71687 14662.1 -141229 -53217.6)
(532.46 -1089.91 81177.5 17286.2 -74977.9 -33819.1)
(-7854.64 -5936.38 68783.4 16060.6 -18613.1 34853)
(-15888.7 -7638.74 27555.7 13780.6 19399.6 111470)
(-18220.5 -5203.18 -33238.7 12080.8 33834.9 154041)
(-12251.7 -921.463 -88153.5 10561.4 25992.2 144793)
(-1650.1 1160.53 -111638 7795.48 -970.599 111060)
(5593.48 -417.13 -100513 3275.61 -43220.7 103661)
(3612.68 -4107.87 -78310 -3925.63 -92086.2 156389)
(-6640.09 -8507 -78397.2 -13543.8 -142881 255182)
(-17964.8 -12880.5 -119381 -22064.5 -202921 342506)
(-22148.7 -15945.7 -190429 -25487.8 -284981 357890)
(-15881.2 -16433.5 -258460 -23171.5 -394442 285090)
(-2600.82 -13852.5 -291093 -19030.4 -524991 163543)
(10554.9 -7984.52 -276211 -17207.3 -653839 57326.1)
(17035.4 1842.09 -225871 -15983.6 -740882 6500.45)
(4328.2 12771.8 -164529 -5049.8 -736049 11208.6)
(-47384.7 -112.632 -84512.8 39335.2 -612188 142327)
(-461196 -28367.8 319422 -25795.2 627515 1.60904e+06)
(-108802 6711.4 218761 -15740.8 721042 869136)
(-21931 6562.82 110696 2499.28 565935 519905)
(5874.22 1189.52 94007.5 13281.8 303929 246288)
(17369.9 -3633.87 136545 15760.4 32497.9 85913.8)
(14798.2 -5284.89 193052 9913.83 -183894 59669.4)
(2549.23 -3692.64 222506 -1705.06 -318919 130562)
(-10774.8 -133.761 205422 -12951.2 -376791 218266)
(-17111.8 3921.27 153178 -17369.7 -375919 245560)
(-14131.6 7191.97 96544.1 -12408.5 -336510 186884)
(-5806.45 8981.59 62044.8 -851.426 -276169 74775.5)
(1452 8595.08 56017.5 11100.1 -205129 -29619.3)
(3291.23 5400.95 65150.7 18912.2 -131901 -79393.4)
(-727.132 273.579 69476.9 21669.2 -64033.4 -64078.2)
(-8059.31 -4458.34 54015.6 21101.5 -8609.12 -5183.6)
(-14566.1 -6347.47 14511.6 19613.4 27766.1 58976.7)
(-15845.7 -4539.73 -39531.6 18370.1 40976.3 92473.5)
(-10094.7 -1085.68 -86039.1 16600.8 31972.5 83095.7)
(-793.654 477.018 -104332 13175 2951.51 57242.2)
(5072.43 -1184.45 -93251.6 8140.91 -42472.8 59064.2)
(2421.61 -4853.7 -74580.9 1119.05 -96203.7 116621)
(-7675.55 -9224.57 -78760.3 -7340.92 -153307 213680)
(-18253.2 -13407.2 -122108 -14117.4 -218673 293908)
(-21514.7 -16166.1 -192522 -15959.3 -302496 300773)
(-14700.9 -16575.9 -257373 -13016.8 -410159 224310)
(-1631.84 -14400.4 -286490 -9156.99 -538157 108266)
(10671.7 -9200.66 -270378 -8204.74 -666471 17932.3)
(15822.6 213.312 -222166 -8593.52 -753871 -8004.4)
(-1461.1 11732.3 -166479 -267.747 -743319 31141.3)
(-71470.4 -2634.8 -96860.4 42042.7 -589230 221648)
(-386577 -23996.9 287342 -7520.31 608342 1.33795e+06)
(-89097.7 6622.28 230590 -9247.09 704792 701897)
(-16688.8 3376.27 148948 4068.59 560818 416150)
(5173.32 -3090.1 137098 13895.6 306358 191053)
(13915 -7974.24 171577 16967 37429.7 62523.5)
(10860.4 -9508.66 215458 12319.3 -181892 51381.6)
(-511.945 -7625.92 233642 2352.74 -323599 124219)
(-12543.1 -3313.6 209327 -7152 -387793 206491)
(-17842.9 1968.09 153869 -10519.6 -388805 227088)
(-14368.1 6563.95 96366.5 -5818.07 -345554 164712)
(-6100.46 9290.77 61432 4548.35 -277444 52328.9)
(704.661 9348.07 53800.7 15135.2 -198643 -49951.3)
(2108.52 6412.64 59406.6 22133.8 -120426 -98576.1)
(-1791.07 1553.44 59384.1 24825.1 -50903.7 -86392.4)
(-8222.17 -3004.56 41325.5 24700.3 3950.03 -35824.7)
(-13397 -5067.46 3348.76 23804 39140.3 17491.7)
(-13738 -3895.94 -44776.6 22897.1 51371.3 43030.2)
(-8145.73 -1252.77 -83847.7 20918.1 41013.3 33568.2)
(26.9526 -140.422 -97391.8 17006.3 9521.72 14789)
(4631.65 -1780.62 -86153.4 11621.9 -39411.5 25230.1)
(1294.4 -5302.86 -70665.8 4891.76 -97902.8 87566.9)
(-8724.38 -9551.43 -78841.7 -2309.86 -160528 182982)
(-18610 -13534.5 -124713 -7264.57 -230042 256095)
(-20969.5 -16058.4 -194763 -7493.68 -314598 254433)
(-13625 -16445.1 -256756 -3866.59 -420073 174389)
(-808.017 -14630.4 -282781 -157.409 -545693 64029.2)
(10531.2 -10044.5 -266072 96.0557 -673995 -10045.2)
(14096.1 -1161.55 -221175 -1871.08 -762787 -10106.5)
(-8803.63 10610.2 -173155 3339.35 -748355 65821.8)
(-102081 -5513.18 -114520 41996.5 -565901 326314)
(-320827 -19813.7 259467 8424.28 600471 1.09889e+06)
(-71935.6 6566.82 241025 -5137.88 691422 562897)
(-12207.7 1001.08 181955 3102.59 555217 337303)
(4491.81 -6371.34 174401 12231.5 307843 156869)
(10711.5 -11454.4 201646 16273 42017.6 57137.6)
(7141.99 -13080.3 233786 13141.2 -179299 58787.2)
(-3425.78 -11110.2 241269 5083.65 -326463 131409)
(-14177.3 -6289.54 210119 -2461.04 -395698 206039)
(-18399.4 -92.1762 151916 -4620.06 -397817 217956)
(-14384.5 5556.5 94191.9 -61.0344 -350837 150409)
(-6145.71 9114.17 59576.3 9153.91 -275699 37032.6)
(233.959 9688.24 51175 18340.4 -190024 -63362.1)
(1209.89 7168.06 54205 24407 -107366 -110574)
(-2640.77 2703.92 50731.3 26851.1 -36266.1 -100639)
(-8333.29 -1619.22 30573.6 26961.9 18257.1 -56969.2)
(-12368.3 -3833.67 -6045.73 26477.7 52603.3 -12937.7)
(-11873.9 -3283.1 -49029.2 25824.4 64047.1 5666.68)
(-6372.74 -1402.37 -81531 23722.5 52197.7 -3949.57)
(842.622 -652.369 -90649.9 19514.3 17946.1 -16464.7)
(4293.46 -2164.89 -78961.6 13937 -34728.7 2093.31)
(242.393 -5420.28 -66249.9 7569.65 -97822.8 69382.9)
(-9787.75 -9463.29 -78307.5 1626.75 -165153 163641)
(-19043.4 -13255.4 -126891 -1533.56 -237621 230032)
(-20510.8 -15628.4 -196886 -162.148 -321869 220069)
(-12621.5 -16042.4 -256304 4220.65 -424713 136522)
(-76.2374 -14521.1 -279487 7922.1 -548029 32008.7)
(10161.9 -10468.5 -262613 7618.32 -676736 -25235.9)
(11803.9 -2236.87 -222202 4057.51 -767958 1933.13)
(-17866.6 9391.8 -184174 5612.48 -751856 117251)
(-139720 -8723.75 -137608 39035.4 -544021 458137)
(-264113 -15884.2 236224 21968.2 602681 892746)
(-57239.8 6493.2 251232 -2915.13 679828 450411)
(-8452.72 -548.371 211240 354.431 547982 281504)
(3762.16 -8597.04 207290 8910.47 307323 142619)
(7658.81 -14010 227782 14045.9 45321.9 69499.4)
(3545.9 -15936.9 248721 12524.4 -176964 82325.2)
(-6281.34 -14087.3 245774 6445.94 -328298 153158)
(-15764 -9014.19 207903 936.23 -401232 218387)
(-18857.5 -2227.48 147136 94.9239 -403604 219773)
(-14224.6 4184.86 89614.8 4670.67 -352913 145321)
(-5942.17 8449.22 56004.1 12860.4 -271430 29760.4)
(69.1456 9595.9 47739.3 20701 -179749 -69435.8)
(626.979 7632.92 49266 25770.6 -93252.8 -115231)
(-3257.35 3683.79 43320 27803 -20763.3 -106746)
(-8381.52 -341.854 21593.1 27950 33538.4 -68582.8)
(-11463.7 -2673.79 -13806.2 27712.6 67273.7 -32337.3)
(-10224.3 -2703.19 -52351.4 27256.4 78084.8 -19730.8)
(-4737.77 -1507.89 -79026.5 25148.5 64686.6 -29653.7)
(1687.45 -1019.69 -83908.9 20840.3 27517.2 -36683.3)
(4080.36 -2303.32 -71386.1 15217.1 -29032.8 -10387.2)
(-725.515 -5187.4 -60989.2 9245.08 -96543.4 62258.2)
(-10871.3 -8958.68 -76807.1 4468.53 -167802 156240)
(-19566.7 -12579.6 -128337 2977.21 -242085 216696)
(-20138.4 -14885 -198639 5890.37 -325000 198879)
(-11654.7 -15363.7 -255721 11101.3 -424710 111900)
(626.21 -14049.2 -276114 14937.9 -545687 13382.7)
(9604.59 -10429.8 -259274 14188.9 -675129 -26276.2)
(8904.56 -2970.64 -224458 8996.28 -769835 29801.1)
(-28789.4 8066.84 -199037 6393 -754640 187234)
(-184742 -12238.8 -166132 33080.8 -525514 618316)
(-216560 -12229.6 217976 32830 613471 720493)
(-44907.9 6416.25 262325 -2304.32 669077 362909)
(-5375.24 -1269.82 238318 -3635.98 538345 247064)
(2923.32 -9757.88 237154 4380.13 304058 147318)
(4658.97 -15623.8 251044 10527.9 46580.3 99411)
(-23.9591 -18054.6 260987 10535.9 -175682 122424)
(-9169.15 -16531.4 247584 6368.73 -329944 190410)
(-17393.4 -11462.5 202814 2860.62 -405253 244876)
(-19297.4 -4410.45 139363 3404.9 -406973 234011)
(-13935.8 2475.31 82239.8 8186.4 -352468 150694)
(-5493.36 7311.65 50240.7 15547.2 -265205 31322.3)
(236.269 9067.68 43080 22172.6 -168318 -67791.3)
(389.479 7782.81 44287.5 26229.4 -78608.8 -112428)
(-3622.07 4457.23 36926.4 27705.8 -5019.77 -104699)
(-8354.26 793.179 14194.8 27702.7 49040.9 -70714.9)
(-10663.3 -1609.1 -20082.2 27562.3 82297.2 -40834.8)
(-8754.75 -2151.32 -54804.7 27265.2 92605.1 -33375.4)
(-3198.42 -1539.38 -76252.9 25281.6 77694.2 -43799.4)
(2597.25 -1205.34 -76943.8 21064.2 37581.2 -46047.3)
(4013.38 -2168.95 -63109.3 15526.2 -22884.7 -12239.6)
(-1604.31 -4599.91 -54523.1 9946.6 -94617.4 66400.2)
(-11985 -8055.74 -73989.7 6168.16 -169125 161341)
(-20195.7 -11532.6 -128758 6138.92 -244207 217004)
(-19851.3 -13843.1 -199784 10486.2 -324811 191980)
(-10684.7 -14404.6 -254715 16582.2 -420822 101650)
(1370.61 -13193.7 -272155 20677.9 -539321 9291.99)
(8912.13 -9890.65 -255272 19560.7 -669756 -11837.6)
(5368.42 -3318.98 -227055 12693.2 -769029 75113.9)
(-41682.9 6641.1 -217117 5530.66 -757640 277371)
(-237359 -16022.6 -199986 24144.6 -512333 807456)
(-178204 -8833.55 205051 40663 631038 582874)
(-34820.3 6405.69 275399 -3161.47 658338 298935)
(-2923.23 -1171.58 264669 -8508.12 525820 232473)
(1920.08 -9884.14 265364 -1079.29 297544 170132)
(1619.18 -16314.6 272491 5837.29 45145.8 146749)
(-3661.25 -19437 271319 7168.13 -176230 179504)
(-12180.2 -18439.8 247137 4757.22 -332291 244015)
(-19156.7 -13626.2 194996 3148.51 -408728 286690)
(-19800 -6618.29 128445 5110.81 -408861 261970)
(-13566.6 461.934 71687.3 10301.2 -350301 167647)
(-4805.42 5731.56 41821.3 17080.2 -257672 42452.7)
(757.673 8114.1 36781 22681.9 -156266 -58081.1)
(524.216 7603.17 38952.8 25756.5 -63964.2 -102077)
(-3716.87 4994.93 31307.1 26559.6 10343.7 -94542.6)
(-8237.45 1757.26 8172.08 26242 64025.4 -63508.4)
(-9943.73 -655.24 -25033.3 26067.3 96843.2 -38672.9)
(-7426.28 -1618.44 -56444.5 25903.7 106762 -35592.5)
(-1709.01 -1466.8 -73108.5 24170.9 90469.7 -46710.4)
(3608.3 -1176.38 -69504.2 20216.3 47513.3 -44760)
(4111.09 -1742.21 -53790.2 14870.8 -16826.5 -3482.86)
(-2393.88 -3665.37 -46483.1 9646.92 -92597.3 82029.6)
(-13144 -6788.08 -69517.7 6644.86 -169818 179473)
(-20948 -10154.3 -127886 7812.12 -244852 231763)
(-19646.3 -12525.7 -200100 13434.7 -322243 200360)
(-9666.2 -13164.8 -252998 20436.1 -413941 106802)
(2236.04 -11939.8 -267088 24874.7 -529740 20815.1)
(8149.47 -8820.5 -249779 23420 -661381 19357)
(1180.5 -3232.14 -229012 14839.1 -766332 139412)
(-56628.1 5148.51 -237656 2871.12 -761878 389093)
(-297657 -20026.1 -238943 12308 -506375 1.02564e+06)
(-148954 -5656.11 197755 45142.3 653322 480136)
(-26847.4 6563.94 291531 -5426.09 646848 257051)
(-1047.81 -275.501 291711 -14072.9 510111 236413)
(703.442 -9038.68 293241 -7364.91 287410 210413)
(-1545.87 -16128.2 293162 -47.9924 40420.5 211496)
(-7455.83 -20105.4 280450 2321.78 -179396 254007)
(-15405.1 -19822.7 244876 1473.82 -336276 314759)
(-21145 -15507.9 184598 1632.01 -412697 344871)
(-20444.1 -8832.08 114243 5018.08 -410304 304790)
(-13164.3 -1816.05 57596.4 10823.3 -347313 197175)
(-3886.17 3750.23 30298.2 17303.9 -249557 63813.8)
(1651.86 6758.02 28432.8 22121.5 -144176 -39986.2)
(1054.61 7089.79 32937.5 24291.2 -49872.7 -84115.5)
(-3524.76 5275.61 26204.6 24341.3 24699.2 -76383.8)
(-8015.82 2528.19 3306.53 23576.2 77761.7 -47202)
(-9278.53 176.919 -28824.1 23258 110103 -26211.2)
(-6196.01 -1094.32 -57318 23208.5 119739 -26819.9)
(-221.687 -1263.63 -69471.1 21832.9 102284 -38778.4)
(4756.54 -906.497 -61317.2 18279.1 56695.3 -33045.5)
(4388.89 -1011.81 -43070.9 13198.3 -11409.3 15877.5)
(-3099.61 -2401.19 -36500.3 8258.12 -91061.8 109389)
(-14368 -5200.34 -63075.7 5778.11 -170625 211126)
(-21842.5 -8496.04 -125485 7840.22 -244960 261681)
(-19517.2 -10966.6 -199392 14526.8 -318347 224877)
(-8549.25 -11653.6 -250289 22397.3 -405103 128283)
(3308.67 -10284.2 -260381 27200.1 -517925 48966.9)
(7394.35 -7199.39 -241933 25377.4 -650978 68536.7)
(-3655.61 -2653.28 -229254 15045.3 -762738 224181)
(-73674.4 3660.5 -259742 -1787.99 -768452 523729)
(-365617 -24179.9 -282651 -2339.53 -509409 1.2726e+06)
(-128567 -2653.64 196365 45994.4 678079 411887)
(-20850.4 6999.49 311771 -9113.05 633888 235811)
(294.199 1377.29 320775 -20324.3 491016 257785)
(-768.129 -7311.37 322036 -14574.4 273323 267732)
(-4911.42 -15128.4 314063 -7323.89 31776.2 293782)
(-11492.4 -20087.8 289109 -4235.98 -186029 346454)
(-18934.2 -20694.8 241244 -3709.78 -342899 403435)
(-23448.5 -17114 171761 -1914.5 -418266 420399)
(-21305.5 -11034.4 96618.6 2891.53 -412425 363509)
(-12773.6 -4315.08 39625.3 9522.89 -344503 240187)
(-2744.25 1418.29 15247.2 16021.1 -241676 96016.1)
(2933.68 5034.01 17640.3 20337.9 -132701 -13205.4)
(2000.3 6250.11 25917.9 21732.9 -36931.4 -58504.4)
(-3030.38 5287.85 21353.6 21001.8 37400.5 -50385.6)
(-7673.38 3090.93 -627.228 19698.5 89524.8 -22125.5)
(-8638.8 880.194 -31620.2 19151.7 121290 -3918.44)
(-5018.4 -570.727 -57462.8 19195.5 130742 -7595.6)
(1312.63 -910.826 -65202.3 18246.9 112414 -20454.5)
(6076.98 -379.166 -52092.7 15180.3 64490.7 -11140.1)
(4858.8 23.4579 -30581.9 10386 -7224.1 45863)
(-3732.33 -833.58 -24211 5613.75 -90648 148766)
(-15682.2 -3344.59 -54375.5 3379.87 -172356 256795)
(-22899.3 -6618.59 -121360 6014.77 -245543 307404)
(-19454.5 -9211.84 -197500 13502.9 -314284 266293)
(-7278.89 -9894.93 -246324 22134.2 -395497 166944)
(4681.02 -8239.62 -251504 27241.5 -505065 94721.3)
(6738.16 -5022.66 -230841 24937.9 -639765 136912)
(-9112.48 -1521.37 -226616 12795 -759480 330908)
(-92835.3 2289.34 -282289 -8781.85 -778552 682645)
(-441150 -28392.7 -330615 -19812.2 -523053 1.54796e+06)