/*--------------------------------*- C++ -*----------------------------------*\
| =========                 |                                                 |
| \\      /  F ield         | OpenFOAM: The Open Source CFD Toolbox           |
|  \\    /   O peration     | Version:  2106                                  |
|   \\  /    A nd           | Website:  www.openfoam.com                      |
|    \\/     M anipulation  |                                                 |
\*---------------------------------------------------------------------------*/
FoamFile
{
    version     2.0;
    format      ascii;
    arch        "LSB;label=32;scalar=64";
    class       volSymmTensorField;
    location    "1672";
    object      sigma;
}
// * * * * * * * * * * * * * * * * * * * * * * * * * * * * * * * * * * * * * //

dimensions      [1 -1 -2 0 0 0 0];

internalField   nonuniform List<symmTensor> 
9000
(
(1.56773e+15 -2.11019e+13 4.27278e+14 8.57089e+14 7.64801e+14 9.40636e+15)
(2.30967e+15 -4.52717e+12 -3.15429e+14 7.91047e+14 6.84875e+14 7.67833e+15)
(1.9109e+15 -5.96713e+12 -7.17857e+14 5.93461e+14 5.18546e+14 5.672e+15)
(1.33828e+15 -4.86747e+12 -7.35739e+14 3.86038e+14 3.31958e+14 3.68334e+15)
(8.57595e+14 -2.26997e+12 -5.33867e+14 2.24716e+14 1.796e+14 2.16908e+15)
(5.4725e+14 1.93121e+11 -2.76003e+14 1.29583e+14 8.57203e+13 1.29566e+15)
(3.89292e+14 1.58713e+12 -7.8219e+13 8.9846e+13 4.54103e+13 9.41137e+14)
(3.20617e+14 1.59091e+12 1.88124e+13 7.8988e+13 3.6932e+13 8.47409e+14)
(2.81805e+14 5.27188e+11 4.06891e+13 7.37086e+13 3.68831e+13 7.96152e+14)
(2.47798e+14 -7.10262e+11 3.5794e+13 6.49584e+13 3.15004e+13 7.10206e+14)
(2.17682e+14 -1.32077e+12 3.97463e+13 5.41003e+13 2.14212e+13 6.02227e+14)
(2.0057e+14 -1.06168e+12 7.33841e+13 4.61338e+13 1.4999e+13 5.17412e+14)
(2.18422e+14 -2.22233e+11 1.39987e+14 5.04419e+13 2.19909e+13 5.45545e+14)
(2.89766e+14 6.52056e+11 2.12254e+14 7.48657e+13 4.69972e+13 7.68416e+14)
(4.0922e+14 1.10504e+12 2.40862e+14 1.1779e+14 8.56449e+13 1.177e+15)
(5.39845e+14 9.20066e+11 1.86983e+14 1.65014e+14 1.25161e+14 1.63466e+15)
(6.30521e+14 2.07224e+11 5.79837e+13 1.96336e+14 1.50149e+14 1.93974e+15)
(6.47294e+14 -5.05039e+11 -8.33253e+13 1.98327e+14 1.51812e+14 1.95719e+15)
(6.033e+14 -5.66143e+11 -1.58569e+14 1.7699e+14 1.35876e+14 1.74595e+15)
(5.54054e+14 1.0663e+11 -1.4348e+14 1.55139e+14 1.18561e+14 1.53285e+15)
(5.40559e+14 9.59018e+11 -8.59875e+13 1.49733e+14 1.12942e+14 1.48515e+15)
(5.61542e+14 1.32755e+12 -5.36048e+13 1.60048e+14 1.19471e+14 1.59449e+15)
(5.85849e+14 8.24948e+11 -8.41345e+13 1.72486e+14 1.26444e+14 1.73219e+15)
(5.74358e+14 -4.32519e+11 -1.71308e+14 1.70928e+14 1.18797e+14 1.7453e+15)
(5.04868e+14 -1.79376e+12 -2.77864e+14 1.46525e+14 8.70441e+13 1.54848e+15)
(3.75386e+14 -2.4756e+12 -3.586e+14 9.99449e+13 3.43155e+13 1.13777e+15)
(2.03541e+14 -2.23518e+12 -3.80444e+14 3.99216e+13 -2.65603e+13 5.89328e+14)
(2.45545e+13 -1.42925e+12 -3.46199e+14 -1.89526e+13 -8.20921e+13 3.32614e+13)
(-1.40482e+14 3.31591e+11 -2.78905e+14 -7.13959e+13 -1.24982e+14 -4.65999e+14)
(-1.16125e+14 -2.72517e+12 -1.04283e+14 -7.67374e+13 -1.53475e+14 -6.53473e+14)
(1.28468e+15 -2.89315e+13 4.41619e+14 1.19452e+15 1.23572e+15 7.43593e+15)
(1.84677e+15 9.35211e+12 -2.09069e+14 1.04692e+15 1.10425e+15 5.88843e+15)
(1.54196e+15 1.57498e+13 -5.71893e+14 7.77349e+14 8.29475e+14 4.31549e+15)
(1.08789e+15 1.60384e+13 -5.95396e+14 5.04551e+14 5.15275e+14 2.80331e+15)
(7.15757e+14 1.40314e+13 -4.29501e+14 3.04668e+14 2.53722e+14 1.68678e+15)
(4.83075e+14 1.13055e+13 -2.15515e+14 1.96207e+14 9.05693e+13 1.06847e+15)
(3.68322e+14 8.80511e+12 -5.16236e+13 1.57413e+14 2.19913e+13 8.34607e+14)
(3.17963e+14 6.30592e+12 2.81204e+13 1.49699e+14 1.2169e+13 7.79999e+14)
(2.84544e+14 3.14456e+12 4.55365e+13 1.4207e+14 1.88009e+13 7.38884e+14)
(2.51913e+14 -2.78449e+10 4.09053e+13 1.26461e+14 1.32865e+13 6.62442e+14)
(2.21178e+14 -1.84172e+12 4.33473e+13 1.06586e+14 -3.2173e+12 5.64955e+14)
(1.993e+14 -2.27437e+12 7.04232e+13 8.87557e+13 -1.27851e+13 4.8023e+14)
(2.0519e+14 -2.54656e+12 1.25431e+14 8.67075e+13 2.39755e+12 4.80246e+14)
(2.56366e+14 -3.41411e+12 1.85369e+14 1.13531e+14 4.77632e+13 6.34836e+14)
(3.505e+14 -4.28274e+12 2.07886e+14 1.69062e+14 1.131e+14 9.42629e+14)
(4.57327e+14 -4.05296e+12 1.5934e+14 2.33688e+14 1.76709e+14 1.29741e+15)
(5.32898e+14 -2.37962e+12 4.59726e+13 2.77483e+14 2.15157e+14 1.53662e+15)
(5.46889e+14 3.70501e+09 -7.78771e+13 2.79539e+14 2.16599e+14 1.54875e+15)
(5.10194e+14 1.78245e+12 -1.44287e+14 2.48451e+14 1.91243e+14 1.38057e+15)
(4.72204e+14 2.26965e+12 -1.32436e+14 2.19645e+14 1.62751e+14 1.21865e+15)
(4.67295e+14 1.96681e+12 -8.39735e+13 2.17465e+14 1.5173e+14 1.19556e+15)
(4.92515e+14 1.42414e+12 -5.66829e+13 2.39005e+14 1.60129e+14 1.30011e+15)
(5.22172e+14 6.94853e+11 -8.26061e+13 2.64977e+14 1.67643e+14 1.43169e+15)
(5.24259e+14 -2.08998e+11 -1.56462e+14 2.72995e+14 1.47666e+14 1.47176e+15)
(4.81116e+14 -5.43021e+11 -2.46993e+14 2.51583e+14 8.28098e+13 1.35494e+15)
(3.88711e+14 6.6635e+11 -3.16011e+14 1.99729e+14 -1.80206e+13 1.07177e+15)
(2.58914e+14 2.9406e+12 -3.34721e+14 1.27346e+14 -1.27916e+14 6.75262e+14)
(1.19143e+14 5.15392e+12 -3.04911e+14 5.38266e+13 -2.22491e+14 2.6269e+14)
(-1.72276e+13 6.33131e+12 -2.45883e+14 -1.57999e+13 -2.89547e+14 -1.19731e+14)
(-3.14088e+13 -2.16576e+12 -9.34412e+13 -1.96026e+13 -3.40964e+14 -2.36536e+14)
(1.16648e+15 -3.18746e+13 4.37828e+14 1.50045e+15 1.20024e+15 6.35826e+15)
(1.65796e+15 1.27874e+13 -1.31113e+14 1.31387e+15 1.07553e+15 4.93825e+15)
(1.38135e+15 2.30866e+13 -4.62116e+14 9.75801e+14 8.00977e+14 3.59542e+15)
(9.69815e+14 2.30431e+13 -4.88971e+14 6.30165e+14 4.83772e+14 2.32475e+15)
(6.387e+14 1.95258e+13 -3.48388e+14 3.77375e+14 2.15523e+14 1.40629e+15)
(4.3832e+14 1.56153e+13 -1.65603e+14 2.41602e+14 4.6168e+13 9.16329e+14)
(3.45408e+14 1.24517e+13 -2.63045e+13 1.95198e+14 -2.43782e+13 7.48373e+14)
(3.08325e+14 9.31881e+12 3.97276e+13 1.88583e+14 -3.17685e+13 7.23018e+14)
(2.81494e+14 5.02545e+12 5.13963e+13 1.809e+14 -2.06514e+13 6.95655e+14)
(2.49401e+14 5.15952e+11 4.42095e+13 1.60493e+14 -2.30742e+13 6.23659e+14)
(2.15111e+14 -2.04352e+12 4.40759e+13 1.32734e+14 -3.80012e+13 5.24332e+14)
(1.87906e+14 -2.62085e+12 6.63664e+13 1.07622e+14 -4.52979e+13 4.33402e+14)
(1.87601e+14 -3.14464e+12 1.13433e+14 1.0378e+14 -2.65032e+13 4.18037e+14)
(2.31133e+14 -4.75085e+12 1.64544e+14 1.3748e+14 2.21322e+13 5.39741e+14)
(3.16075e+14 -6.41101e+12 1.82429e+14 2.07632e+14 8.84276e+13 7.96771e+14)
(4.13827e+14 -6.26866e+12 1.37719e+14 2.8897e+14 1.50464e+14 1.09707e+15)
(4.83045e+14 -3.7013e+12 3.61019e+13 3.43777e+14 1.86487e+14 1.29995e+15)
(4.95115e+14 3.70829e+10 -7.42856e+13 3.46063e+14 1.8676e+14 1.30839e+15)
(4.6094e+14 2.64705e+12 -1.33385e+14 3.07213e+14 1.61838e+14 1.16441e+15)
(4.27768e+14 3.0719e+12 -1.23166e+14 2.71918e+14 1.32886e+14 1.03171e+15)
(4.2769e+14 2.33216e+12 -8.0773e+13 2.70768e+14 1.19794e+14 1.02401e+15)
(4.5713e+14 1.28297e+12 -5.72141e+13 2.99892e+14 1.25411e+14 1.12934e+15)
(4.91079e+14 -6.8094e+10 -8.06895e+13 3.34146e+14 1.28671e+14 1.25919e+15)
(4.98611e+14 -1.64056e+12 -1.46541e+14 3.442e+14 1.01762e+14 1.3096e+15)
(4.62344e+14 -2.17094e+12 -2.2687e+14 3.14937e+14 2.68268e+13 1.22182e+15)
(3.7935e+14 -1.65786e+11 -2.87371e+14 2.46214e+14 -8.43152e+13 9.88865e+14)
(2.62646e+14 3.60294e+12 -3.02431e+14 1.52727e+14 -2.01149e+14 6.60188e+14)
(1.379e+14 7.3915e+12 -2.73933e+14 5.97614e+13 -2.97301e+14 3.18794e+14)
(1.4793e+13 8.84546e+12 -2.19282e+14 -2.45716e+13 -3.60422e+14 1.89721e+12)
(-6.57931e+12 -4.12844e+10 -8.48882e+13 -2.60635e+13 -4.12222e+14 -7.79577e+13)
(1.05538e+15 -3.34962e+13 4.23997e+14 1.5599e+15 1.02231e+15 5.56e+15)
(1.46972e+15 1.29704e+13 -6.81122e+13 1.34392e+15 9.2398e+14 4.22379e+15)
(1.22066e+15 2.59937e+13 -3.67996e+14 9.96489e+14 6.8085e+14 3.05157e+15)
(8.50416e+14 2.58066e+13 -3.96816e+14 6.39552e+14 3.96325e+14 1.95531e+15)
(5.57266e+14 2.14881e+13 -2.76876e+14 3.80512e+14 1.51279e+14 1.17684e+15)
(3.85824e+14 1.72712e+13 -1.19597e+14 2.44374e+14 -6.00582e+12 7.78047e+14)
(3.12713e+14 1.41879e+13 -7.00652e+11 2.01531e+14 -7.16979e+13 6.60528e+14)
(2.88408e+14 1.10293e+13 5.31007e+13 1.99265e+14 -7.70146e+13 6.62124e+14)
(2.68679e+14 6.32377e+12 5.82106e+13 1.9344e+14 -6.35146e+13 6.49728e+14)
(2.37583e+14 1.2138e+12 4.6955e+13 1.70978e+14 -6.20214e+13 5.80708e+14)
(2.0002e+14 -1.68887e+12 4.36059e+13 1.38525e+14 -7.21661e+13 4.75973e+14)
(1.68194e+14 -2.34251e+12 6.18267e+13 1.087e+14 -7.48588e+13 3.77291e+14)
(1.62905e+14 -3.08371e+12 1.02492e+14 1.02305e+14 -5.37332e+13 3.50757e+14)
(1.99936e+14 -5.24334e+12 1.46192e+14 1.36163e+14 -7.11543e+12 4.50401e+14)
(2.76105e+14 -7.51458e+12 1.59953e+14 2.08389e+14 5.25932e+13 6.71517e+14)
(3.6443e+14 -7.55523e+12 1.1838e+14 2.92231e+14 1.05942e+14 9.31323e+14)
(4.26776e+14 -4.52577e+12 2.69223e+13 3.48449e+14 1.35351e+14 1.10614e+15)
(4.36969e+14 -1.11088e+10 -7.15622e+13 3.50307e+14 1.34344e+14 1.11116e+15)
(4.05972e+14 3.01882e+12 -1.23898e+14 3.10279e+14 1.12441e+14 9.85844e+14)
(3.77835e+14 3.30265e+12 -1.14584e+14 2.75082e+14 8.58713e+13 8.75686e+14)
(3.82045e+14 2.22014e+12 -7.69661e+13 2.7641e+14 7.15147e+13 8.80441e+14)
(4.14709e+14 7.41309e+11 -5.66451e+13 3.09762e+14 7.26972e+13 9.88073e+14)
(4.51283e+14 -1.21108e+12 -7.88937e+13 3.47977e+14 7.01733e+13 1.11688e+15)
(4.61724e+14 -3.4004e+12 -1.39396e+14 3.59384e+14 3.82423e+13 1.1711e+15)
(4.28931e+14 -4.13805e+12 -2.12256e+14 3.2783e+14 -3.86054e+13 1.09541e+15)
(3.52099e+14 -1.64775e+12 -2.65617e+14 2.54394e+14 -1.47315e+14 8.88652e+14)
(2.46262e+14 3.15807e+12 -2.76613e+14 1.56546e+14 -2.57842e+14 6.0255e+14)
(1.35629e+14 8.20091e+12 -2.47808e+14 6.14329e+13 -3.44531e+14 3.11564e+14)
(2.70043e+13 1.01028e+13 -1.95831e+14 -2.13352e+13 -3.95551e+14 4.55511e+13)
(4.35267e+12 1.92659e+12 -7.66851e+13 -1.85616e+13 -4.37981e+14 -1.33386e+13)
(9.46319e+14 -3.41876e+13 4.03808e+14 1.50206e+15 8.59164e+14 4.8886e+15)
(1.2838e+15 1.18113e+13 -1.58992e+13 1.26839e+15 7.89568e+14 3.62081e+15)
(1.06122e+15 2.6128e+13 -2.83851e+14 9.37527e+14 5.76195e+14 2.58985e+15)
(7.31352e+14 2.59321e+13 -3.13406e+14 5.96622e+14 3.21887e+14 1.63711e+15)
(4.74461e+14 2.12818e+13 -2.11336e+14 3.51493e+14 9.84828e+13 9.7193e+14)
(3.30021e+14 1.71747e+13 -7.61541e+13 2.26298e+14 -4.79999e+13 6.46996e+14)
(2.75345e+14 1.44748e+13 2.48825e+13 1.91597e+14 -1.10588e+14 5.72401e+14)
(2.63087e+14 1.16208e+13 6.73965e+13 1.95029e+14 -1.16e+14 5.98967e+14)
(2.50225e+14 7.06599e+12 6.56312e+13 1.92033e+14 -1.01976e+14 6.00827e+14)
(2.20282e+14 1.99518e+12 4.96137e+13 1.68825e+14 -9.67534e+13 5.33943e+14)
(1.79851e+14 -9.16942e+11 4.27514e+13 1.33175e+14 -1.01058e+14 4.22884e+14)
(1.44067e+14 -1.6451e+12 5.72574e+13 9.99787e+13 -9.81774e+13 3.16528e+14)
(1.34562e+14 -2.64694e+12 9.22934e+13 9.10122e+13 -7.45102e+13 2.8107e+14)
(1.65723e+14 -5.24486e+12 1.29312e+14 1.22345e+14 -3.00221e+13 3.63666e+14)
(2.33418e+14 -7.95618e+12 1.39194e+14 1.91206e+14 2.33894e+13 5.55865e+14)
(3.12261e+14 -8.19133e+12 1.0033e+14 2.71194e+14 6.88671e+13 7.81923e+14)
(3.67561e+14 -4.97505e+12 1.81215e+13 3.24453e+14 9.24821e+13 9.32665e+14)
(3.75927e+14 -9.05878e+10 -6.93352e+13 3.25554e+14 9.04574e+13 9.34425e+14)
(3.48391e+14 3.07603e+12 -1.15246e+14 2.87342e+14 7.10922e+13 8.25047e+14)
(3.25288e+14 3.17355e+12 -1.06468e+14 2.55139e+14 4.63911e+13 7.34061e+14)
(3.33396e+14 1.79283e+12 -7.29421e+13 2.59432e+14 3.04501e+13 7.49704e+14)
(3.68608e+14 -5.78117e+10 -5.56658e+13 2.95308e+14 2.67867e+13 8.60082e+14)
(4.06694e+14 -2.50191e+12 -7.75186e+13 3.35198e+14 1.83088e+13 9.87662e+14)
(4.18428e+14 -5.10677e+12 -1.34266e+14 3.47116e+14 -1.81713e+13 1.04188e+15)
(3.8734e+14 -5.93592e+12 -2.0121e+14 3.15e+14 -9.52902e+13 9.70494e+14)
(3.15233e+14 -3.18533e+12 -2.48249e+14 2.41583e+14 -1.99831e+14 7.79622e+14)
(2.19335e+14 2.21448e+12 -2.55035e+14 1.46437e+14 -3.03382e+14 5.25152e+14)
(1.22501e+14 8.1429e+12 -2.25085e+14 5.68649e+13 -3.81036e+14 2.75516e+14)
(2.90809e+13 1.07254e+13 -1.74833e+14 -1.70285e+13 -4.20439e+14 5.36557e+13)
(9.59836e+12 3.22279e+12 -6.87311e+13 -6.42023e+12 -4.49745e+14 1.19645e+13)
(8.42464e+14 -3.38613e+13 3.79409e+14 1.39413e+15 7.35629e+14 4.2972e+15)
(1.10799e+15 1.00997e+13 2.69579e+13 1.14962e+15 6.93321e+14 3.09341e+15)
(9.09578e+14 2.42897e+13 -2.0864e+14 8.45694e+14 5.03367e+14 2.18438e+15)
(6.17717e+14 2.40802e+13 -2.37728e+14 5.32134e+14 2.70842e+14 1.35558e+15)
(3.9458e+14 1.94595e+13 -1.51281e+14 3.08882e+14 6.22456e+13 7.87006e+14)
(2.74901e+14 1.57316e+13 -3.55344e+13 1.98799e+14 -7.80602e+13 5.24814e+14)
(2.37027e+14 1.35871e+13 4.96554e+13 1.73752e+14 -1.40704e+14 4.875e+14)
(2.35678e+14 1.12786e+13 8.17698e+13 1.83195e+14 -1.4844e+14 5.36296e+14)
(2.28954e+14 7.317e+12 7.32397e+13 1.83342e+14 -1.35274e+14 5.50484e+14)
(2.00106e+14 2.78642e+12 5.23367e+13 1.59946e+14 -1.26596e+14 4.8507e+14)
(1.5723e+14 1.30851e+11 4.19405e+13 1.21833e+14 -1.24541e+14 3.6799e+14)
(1.18136e+14 -6.649e+11 5.29746e+13 8.60387e+13 -1.15476e+14 2.54884e+14)
(1.05059e+14 -1.95395e+12 8.2867e+13 7.47564e+13 -8.87472e+13 2.12147e+14)
(1.30949e+14 -4.89066e+12 1.13726e+14 1.02679e+14 -4.55219e+13 2.80666e+14)
(1.90717e+14 -7.89257e+12 1.19941e+14 1.66041e+14 3.16525e+12 4.48275e+14)
(2.60498e+14 -8.31287e+12 8.34549e+13 2.39545e+14 4.27501e+13 6.45006e+14)
(3.08975e+14 -5.11757e+12 9.7459e+12 2.87989e+14 6.20918e+13 7.74408e+14)
(3.15629e+14 -1.81264e+11 -6.74394e+13 2.88184e+14 5.9334e+13 7.73183e+14)
(2.91568e+14 2.91145e+12 -1.07282e+14 2.53064e+14 4.16073e+13 6.78034e+14)
(2.733e+14 2.79879e+12 -9.88408e+13 2.2502e+14 1.77822e+13 6.04033e+14)
(2.8495e+14 1.15201e+12 -6.89642e+13 2.32363e+14 -2.6083e+11 6.29455e+14)
(3.22185e+14 -1.01646e+12 -5.46436e+13 2.69873e+14 -8.98908e+12 7.42443e+14)
(3.60958e+14 -3.81984e+12 -7.67177e+13 3.1017e+14 -2.3395e+13 8.6817e+14)
(3.72798e+14 -6.63707e+12 -1.30794e+14 3.21801e+14 -6.41867e+13 9.19701e+14)
(3.42284e+14 -7.46273e+12 -1.92874e+14 2.89344e+14 -1.41343e+14 8.4857e+14)
(2.74007e+14 -4.64262e+12 -2.34273e+14 2.17553e+14 -2.42256e+14 6.68552e+14)
(1.87323e+14 9.75854e+11 -2.36987e+14 1.27893e+14 -3.40526e+14 4.40028e+14)
(1.03839e+14 7.47932e+12 -2.05545e+14 4.71483e+13 -4.11535e+14 2.267e+14)
(2.56882e+13 1.09123e+13 -1.56421e+14 -1.46606e+13 -4.41158e+14 4.5156e+13)
(1.25315e+13 3.82835e+12 -6.15549e+13 6.48866e+12 -4.55129e+14 2.2019e+13)
(7.45625e+14 -3.25992e+13 3.52415e+14 1.26706e+15 6.43659e+14 3.76754e+15)
(9.4689e+14 8.34953e+12 6.14871e+13 1.01667e+15 6.26752e+14 2.6291e+15)
(7.70103e+14 2.12386e+13 -1.4217e+14 7.42993e+14 4.55791e+14 1.82747e+15)
(5.13113e+14 2.08777e+13 -1.69696e+14 4.60801e+14 2.38618e+14 1.10739e+15)
(3.20685e+14 1.65008e+13 -9.68383e+13 2.61998e+14 3.93815e+13 6.2259e+14)
(2.23214e+14 1.32937e+13 1.77178e+12 1.68081e+14 -9.851e+13 4.14205e+14)
(2.00193e+14 1.17882e+13 7.28651e+13 1.52796e+14 -1.63793e+14 4.08741e+14)
(2.0827e+14 1.02017e+13 9.55016e+13 1.67976e+14 -1.75591e+14 4.76199e+14)
(2.0666e+14 7.16179e+12 8.06439e+13 1.711e+14 -1.64173e+14 5.00109e+14)
(1.78723e+14 3.53085e+12 5.51359e+13 1.47673e+14 -1.5221e+14 4.35576e+14)
(1.3384e+14 1.33237e+12 4.14016e+13 1.07508e+14 -1.43461e+14 3.13412e+14)
(9.20962e+13 4.92097e+11 4.91791e+13 6.96427e+13 -1.27773e+14 1.94978e+14)
(7.60596e+13 -1.08691e+12 7.42855e+13 5.63729e+13 -9.75175e+13 1.46451e+14)
(9.72788e+13 -4.2844e+12 9.94281e+13 8.07502e+13 -5.47886e+13 2.03032e+14)
(1.49797e+14 -7.46609e+12 1.02202e+14 1.37963e+14 -9.56774e+12 3.49236e+14)
(2.11171e+14 -8.05621e+12 6.78195e+13 2.04085e+14 2.56482e+13 5.20083e+14)
(2.53264e+14 -5.02703e+12 1.90464e+12 2.47044e+14 4.18906e+13 6.30423e+14)
(2.5838e+14 -2.69509e+11 -6.57675e+13 2.46291e+14 3.85992e+13 6.26627e+14)
(2.37702e+14 2.60232e+12 -9.99477e+13 2.14732e+14 2.17824e+13 5.44478e+14)
(2.23993e+14 2.2649e+12 -9.17408e+13 1.91229e+14 -1.97458e+12 4.85847e+14)
(2.38844e+14 3.7257e+11 -6.52055e+13 2.01557e+14 -2.2572e+13 5.20098e+14)
(2.77622e+14 -2.06593e+12 -5.37976e+13 2.40209e+14 -3.65605e+13 6.35146e+14)
(3.16382e+14 -5.09526e+12 -7.65493e+13 2.8016e+14 -5.68529e+13 7.58056e+14)
(3.27393e+14 -7.94755e+12 -1.2871e+14 2.90817e+14 -1.01641e+14 8.04845e+14)
(2.96698e+14 -8.70426e+12 -1.86695e+14 2.57781e+14 -1.78686e+14 7.31711e+14)
(2.31656e+14 -5.96065e+12 -2.23097e+14 1.88077e+14 -2.76546e+14 5.59913e+14)
(1.53584e+14 -4.07724e+11 -2.22102e+14 1.04954e+14 -3.71009e+14 3.54011e+14)
(8.29542e+13 6.42814e+12 -1.89179e+14 3.4425e+13 -4.3735e+14 1.73744e+14)
(1.97876e+13 1.0782e+13 -1.40892e+14 -1.39063e+13 -4.58628e+14 3.01863e+13)
(1.51898e+13 3.84869e+12 -5.57998e+13 2.0046e+13 -4.55381e+14 2.97816e+13)
(6.56096e+14 -3.06103e+13 3.24143e+14 1.13518e+15 5.73867e+14 3.28912e+15)
(8.01982e+14 6.86815e+12 8.87852e+13 8.83241e+14 5.80171e+14 2.22053e+15)
(6.44708e+14 1.76129e+13 -8.41765e+13 6.40026e+14 4.25595e+14 1.51522e+15)
(4.19427e+14 1.68923e+13 -1.09243e+14 3.89925e+14 2.19693e+14 8.91321e+14)
(2.54598e+14 1.28401e+13 -4.81114e+13 2.15796e+14 2.62193e+13 4.79631e+14)
(1.76716e+14 1.01918e+13 3.53849e+13 1.3776e+14 -1.11778e+14 3.1728e+14)
(1.66427e+14 9.33977e+12 9.39284e+13 1.31686e+14 -1.81456e+14 3.38205e+14)
(1.82228e+14 8.58596e+12 1.08029e+14 1.51961e+14 -1.98457e+14 4.20196e+14)
(1.84551e+14 6.68136e+12 8.75014e+13 1.57554e+14 -1.89272e+14 4.50913e+14)
(1.57266e+14 4.17659e+12 5.79367e+13 1.34021e+14 -1.7413e+14 3.86697e+14)
(1.10805e+14 2.5749e+12 4.1221e+13 9.2082e+13 -1.58529e+14 2.60669e+14)
(6.70716e+13 1.72996e+12 4.59708e+13 5.25612e+13 -1.35977e+14 1.38571e+14)
(4.86652e+13 -1.14995e+11 6.65965e+13 3.76325e+13 -1.0187e+14 8.56928e+13)
(6.57907e+13 -3.50901e+12 8.64354e+13 5.86227e+13 -5.90711e+13 1.32051e+14)
(1.11743e+14 -6.79356e+12 8.601e+13 1.09692e+14 -1.64316e+13 2.59371e+14)
(1.6542e+14 -7.53862e+12 5.34964e+13 1.68334e+14 1.54636e+13 4.0717e+14)
(2.01643e+14 -4.77223e+12 -5.30561e+12 2.05701e+14 2.94123e+13 5.00453e+14)
(2.05437e+14 -3.52386e+11 -6.42375e+13 2.04025e+14 2.56821e+13 4.94588e+14)
(1.88016e+14 2.20402e+12 -9.31964e+13 1.7613e+14 9.19563e+12 4.24492e+14)
(1.78597e+14 1.63961e+12 -8.51807e+13 1.57207e+14 -1.51164e+13 3.79969e+14)
(1.96334e+14 -4.76952e+11 -6.17621e+13 1.70417e+14 -3.86129e+13 4.22194e+14)
(2.36187e+14 -3.13849e+12 -5.3247e+13 2.09912e+14 -5.79672e+13 5.38478e+14)
(2.74293e+14 -6.27379e+12 -7.70022e+13 2.49031e+14 -8.40098e+13 6.5739e+14)
(2.83735e+14 -9.02369e+12 -1.27768e+14 2.5815e+14 -1.32375e+14 6.97819e+14)
(2.52374e+14 -9.67357e+12 -1.82235e+14 2.24255e+14 -2.09106e+14 6.21455e+14)
(1.90221e+14 -7.10852e+12 -2.14259e+14 1.56768e+14 -3.04303e+14 4.56577e+14)
(1.2034e+14 -1.81744e+12 -2.1007e+14 8.06016e+13 -3.96015e+14 2.7134e+14)
(6.21632e+13 5.16526e+12 -1.75952e+14 2.09146e+13 -4.5912e+14 1.22047e+14)
(1.35912e+13 1.043e+13 -1.28522e+14 -1.33306e+13 -4.73059e+14 1.52698e+13)
(1.90811e+13 3.39319e+12 -5.20611e+13 3.55018e+13 -4.50948e+14 4.3689e+13)
(5.73557e+14 -2.81159e+13 2.95678e+14 1.00555e+15 5.20166e+14 2.85457e+15)
(6.73183e+14 5.78403e+12 1.10021e+14 7.56105e+14 5.46893e+14 1.86185e+15)
(5.33962e+14 1.38755e+13 -3.41772e+13 5.42261e+14 4.06979e+14 1.24456e+15)
(3.37532e+14 1.2585e+13 -5.61435e+13 3.23452e+14 2.09825e+14 7.06396e+14)
(1.97375e+14 8.84541e+12 -5.05716e+12 1.73181e+14 1.98714e+13 3.58737e+14)
(1.36556e+14 6.72221e+12 6.51001e+13 1.10159e+14 -1.19766e+14 2.3554e+14)
(1.36839e+14 6.48727e+12 1.12451e+14 1.12403e+14 -1.94851e+14 2.77493e+14)
(1.58565e+14 6.60967e+12 1.18941e+14 1.36885e+14 -2.17641e+14 3.69649e+14)
(1.63575e+14 5.9433e+12 9.35184e+13 1.4421e+14 -2.1086e+14 4.04169e+14)
(1.3662e+14 4.67421e+12 6.05988e+13 1.20346e+14 -1.92629e+14 3.39666e+14)
(8.89617e+13 3.75499e+12 4.13692e+13 7.68299e+13 -1.70215e+14 2.11001e+14)
(4.38591e+13 2.95912e+12 4.33595e+13 3.60064e+13 -1.40778e+14 8.69181e+13)
(2.36374e+13 9.00004e+11 5.98082e+13 1.97223e+13 -1.02649e+14 3.10565e+13)
(3.7208e+13 -2.62816e+12 7.47508e+13 3.75947e+13 -5.93635e+13 6.86635e+13)
(7.72419e+13 -5.96007e+12 7.13818e+13 8.28188e+13 -1.86473e+13 1.79201e+14)
(1.23914e+14 -6.84893e+12 4.05339e+13 1.34264e+14 1.06845e+13 3.06373e+14)
(1.54793e+14 -4.41074e+12 -1.1816e+13 1.6621e+14 2.28958e+13 3.84395e+14)
(1.57495e+14 -4.35125e+11 -6.27873e+13 1.63681e+14 1.87253e+13 3.7698e+14)
(1.43204e+14 1.75253e+12 -8.69798e+13 1.39384e+14 2.06507e+12 3.18138e+14)
(1.37828e+14 9.76995e+11 -7.91398e+13 1.24943e+14 -2.33122e+13 2.8669e+14)
(1.58177e+14 -1.32942e+12 -5.86597e+13 1.40941e+14 -4.99455e+13 3.36135e+14)
(1.98667e+14 -4.16206e+12 -5.30247e+13 1.81087e+14 -7.46219e+13 4.52732e+14)
(2.35544e+14 -7.306e+12 -7.80095e+13 2.19039e+14 -1.06118e+14 5.66414e+14)
(2.42838e+14 -9.8634e+12 -1.27733e+14 2.26182e+14 -1.57558e+14 5.99236e+14)
(2.10525e+14 -1.03936e+13 -1.79132e+14 1.9123e+14 -2.33752e+14 5.19041e+14)
(1.5111e+14 -8.07215e+12 -2.07363e+14 1.26047e+14 -3.26578e+14 3.60568e+14)
(8.91752e+13 -3.16517e+12 -2.0058e+14 5.70697e+13 -4.16334e+14 1.94929e+14)
(4.32067e+13 3.82252e+12 -1.65753e+14 8.57321e+12 -4.77286e+14 7.54285e+13)
(8.84939e+12 9.93211e+12 -1.19513e+14 -1.13122e+13 -4.84686e+14 5.16357e+12)
(2.53956e+13 2.54911e+12 -5.08417e+13 5.43865e+13 -4.42436e+14 6.99362e+13)
(4.9762e+14 -2.53028e+13 2.6791e+14 8.81953e+14 4.78989e+14 2.45883e+15)
(5.59829e+14 5.09617e+12 1.26369e+14 6.38741e+14 5.22582e+14 1.54825e+15)
(4.37802e+14 1.033e+13 8.50279e+12 4.52713e+14 3.95835e+14 1.01277e+15)
(2.67755e+14 8.30797e+12 -9.98734e+12 2.637e+14 2.05865e+14 5.51588e+14)
(1.49629e+14 4.81504e+12 3.25313e+13 1.36016e+14 1.81376e+13 2.60201e+14)
(1.0353e+14 3.13798e+12 9.08871e+13 8.68902e+13 -1.23928e+14 1.70102e+14)
(1.12294e+14 3.44744e+12 1.28216e+14 9.6382e+13 -2.04815e+14 2.28017e+14)
(1.38149e+14 4.42591e+12 1.27958e+14 1.2402e+14 -2.33501e+14 3.2601e+14)
(1.44593e+14 5.00124e+12 9.84438e+13 1.32198e+14 -2.29062e+14 3.61365e+14)
(1.17576e+14 4.98008e+12 6.29311e+13 1.07661e+14 -2.07847e+14 2.95848e+14)
(6.90077e+13 4.7827e+12 4.17227e+13 6.26932e+13 -1.78834e+14 1.65566e+14)
(2.30682e+13 4.09865e+12 4.12763e+13 2.08532e+13 -1.427e+14 4.09936e+13)
(1.52937e+12 1.90216e+12 5.38871e+13 3.48131e+12 -1.00528e+14 -1.66049e+13)
(1.20462e+13 -1.69172e+12 6.43573e+13 1.85429e+13 -5.64547e+13 1.35736e+13)
(4.67723e+13 -5.02622e+12 5.83151e+13 5.83494e+13 -1.71399e+13 1.09186e+14)
(8.71014e+13 -6.05189e+12 2.89521e+13 1.03064e+14 1.02159e+13 2.17878e+14)
(1.13151e+14 -3.98817e+12 -1.75874e+13 1.2991e+14 2.10856e+13 2.82269e+14)
(1.14982e+14 -5.25126e+11 -6.13722e+13 1.26623e+14 1.63968e+13 2.73777e+14)
(1.03686e+14 1.27337e+12 -8.12457e+13 1.05787e+14 -8.9645e+11 2.25438e+14)
(1.0214e+14 3.22516e+11 -7.35637e+13 9.56863e+13 -2.77714e+13 2.06178e+14)
(1.24881e+14 -2.12088e+12 -5.58593e+13 1.14409e+14 -5.76803e+13 2.6222e+14)
(1.65633e+14 -5.06562e+12 -5.30869e+13 1.5509e+14 -8.74706e+13 3.78284e+14)
(2.00797e+14 -8.14738e+12 -7.94585e+13 1.91639e+14 -1.23949e+14 4.85636e+14)
(2.05515e+14 -1.04695e+13 -1.28387e+14 1.96494e+14 -1.77891e+14 5.09931e+14)
(1.72104e+14 -1.08884e+13 -1.77075e+14 1.60393e+14 -2.53327e+14 4.25674e+14)
(1.15406e+14 -8.84515e+12 -2.02052e+14 9.7643e+13 -3.4403e+14 2.73542e+14)
(6.13212e+13 -4.38621e+12 -1.93299e+14 3.60664e+13 -4.32465e+14 1.27039e+14)
(2.74761e+13 2.49547e+12 -1.584e+14 -9.57105e+11 -4.92153e+14 3.6885e+13)
(7.00253e+12 9.34111e+12 -1.13971e+14 -6.3436e+12 -4.93782e+14 3.65413e+12)
(3.50934e+13 1.37893e+12 -5.25454e+13 7.81266e+13 -4.30617e+14 1.13386e+14)
(4.28024e+14 -2.23216e+13 2.41574e+14 7.66597e+14 4.48279e+14 2.09875e+15)
(4.61097e+14 4.72653e+12 1.38949e+14 5.32924e+14 5.04394e+14 1.27579e+15)
(3.5587e+14 7.15891e+12 4.4685e+13 3.73081e+14 3.89204e+14 8.17414e+14)
(2.10124e+14 4.32094e+12 2.98022e+13 2.12096e+14 2.05433e+14 4.25827e+14)
(1.11708e+14 9.83549e+11 6.50127e+13 1.05562e+14 1.93212e+13 1.84106e+14)
(7.82225e+13 -3.54248e+11 1.12872e+14 6.91288e+13 -1.25398e+14 1.21862e+14)
(9.35229e+13 4.00758e+11 1.4116e+14 8.4718e+13 -2.11991e+14 1.91145e+14)
(1.21793e+14 2.1598e+12 1.34911e+14 1.14376e+14 -2.46296e+14 2.90897e+14)
(1.28448e+14 3.89767e+12 1.02062e+14 1.22455e+14 -2.43962e+14 3.24222e+14)
(1.00897e+14 5.06009e+12 6.47049e+13 9.6803e+13 -2.19887e+14 2.56765e+14)
(5.15702e+13 5.58526e+12 4.2084e+13 5.04133e+13 -1.84633e+14 1.25524e+14)
(5.19668e+12 5.07939e+12 3.95863e+13 7.75898e+12 -1.42162e+14 1.62167e+12)
(-1.72386e+13 2.84132e+12 4.87592e+13 -1.04802e+13 -9.60591e+13 -5.66498e+13)
(-9.31125e+12 -7.41318e+11 5.52143e+13 2.08412e+12 -5.09975e+13 -3.26761e+13)
(2.06911e+13 -4.03774e+12 4.67842e+13 3.69574e+13 -1.266e+13 4.97394e+13)
(5.53127e+13 -5.19562e+12 1.87425e+13 7.54928e+13 1.3195e+13 1.41938e+14)
(7.70275e+13 -3.53903e+12 -2.26079e+13 9.76375e+13 2.30134e+13 1.94194e+14)
(7.81861e+13 -6.26749e+11 -5.99592e+13 9.37028e+13 1.76791e+13 1.85003e+14)
(6.97396e+13 7.89354e+11 -7.59323e+13 7.61642e+13 -6.6017e+11 1.46401e+14)
(7.18401e+13 -2.83718e+11 -6.83656e+13 7.02636e+13 -2.93973e+13 1.38543e+14)
(9.682e+13 -2.79404e+12 -5.32639e+13 9.16927e+13 -6.2634e+13 2.00733e+14)
(1.37562e+14 -5.78619e+12 -5.33232e+13 1.32867e+14 -9.71828e+13 3.15645e+14)
(1.70657e+14 -8.76088e+12 -8.11994e+13 1.67868e+14 -1.38021e+14 4.15837e+14)
(1.72513e+14 -1.08457e+13 -1.29523e+14 1.70241e+14 -1.93835e+14 4.31002e+14)
(1.37951e+14 -1.11775e+13 -1.75796e+14 1.32992e+14 -2.68287e+14 3.42662e+14)
(8.40306e+13 -9.42205e+12 -1.97992e+14 7.28557e+13 -3.57082e+14 1.97036e+14)
(3.78164e+13 -5.43081e+12 -1.8787e+14 1.89334e+13 -4.4472e+14 6.96287e+13)
(1.61534e+13 1.25293e+12 -1.5363e+14 -6.30508e+12 -5.03924e+14 8.98781e+12)
(9.28463e+12 8.68695e+12 -1.11907e+14 2.90602e+12 -5.00637e+14 1.39645e+13)
(4.8954e+13 -7.66088e+10 -5.74829e+13 1.07938e+14 -4.1639e+14 1.7799e+14)
(3.64691e+14 -1.92949e+13 2.17261e+14 6.60836e+14 4.26816e+14 1.7728e+15)
(3.76173e+14 4.56488e+12 1.48794e+14 4.3947e+14 4.90429e+14 1.04133e+15)
(2.87667e+14 4.46382e+12 7.52919e+13 3.04283e+14 3.84931e+14 6.56206e+14)
(1.64482e+14 8.09076e+11 6.39409e+13 1.6952e+14 2.06722e+14 3.28004e+14)
(8.37881e+13 -2.47164e+12 9.28737e+13 8.26934e+13 2.2104e+13 1.30409e+14)
(6.1082e+13 -3.59461e+12 1.31308e+14 5.77598e+13 -1.25079e+14 9.1602e+13)
(8.11816e+13 -2.51161e+12 1.51341e+14 7.8288e+13 -2.16918e+14 1.68252e+14)
(1.10289e+14 -9.09801e+10 1.39722e+14 1.08809e+14 -2.56281e+14 2.66075e+14)
(1.15978e+14 2.66712e+12 1.04187e+14 1.15803e+14 -2.55688e+14 2.94639e+14)
(8.73315e+13 4.89175e+12 6.56661e+13 8.85035e+13 -2.28883e+14 2.24056e+14)
(3.72345e+13 6.10899e+12 4.22008e+13 4.06047e+13 -1.87841e+14 9.20437e+13)
(-9.33078e+12 5.8461e+12 3.81013e+13 -2.76846e+12 -1.39522e+14 -3.04645e+13)
(-3.23378e+13 3.67355e+12 4.43134e+13 -2.1713e+13 -8.97146e+13 -8.85772e+13)
(-2.65741e+13 1.86079e+11 4.72559e+13 -1.13408e+13 -4.35535e+13 -6.96634e+13)
(-7.30052e+11 -3.03242e+12 3.67397e+13 1.91042e+13 -5.85564e+12 1.22591e+12)
(2.88015e+13 -4.31735e+12 9.87032e+12 5.20493e+13 1.88856e+13 7.8823e+13)
(4.66577e+13 -3.08778e+12 -2.68881e+13 6.99302e+13 2.78708e+13 1.20333e+14)
(4.7307e+13 -7.38442e+11 -5.8521e+13 6.54643e+13 2.17467e+13 1.10692e+14)
(4.15545e+13 3.24452e+11 -7.0963e+13 5.10556e+13 2.00752e+12 8.10286e+13)
(4.7149e+13 -8.05628e+11 -6.34267e+13 4.9236e+13 -2.88886e+13 8.38724e+13)
(7.42963e+13 -3.30133e+12 -5.07275e+13 7.34104e+13 -6.54347e+13 1.51971e+14)
(1.1489e+14 -6.27426e+12 -5.35702e+13 1.15118e+14 -1.04274e+14 2.65449e+14)
(1.45709e+14 -9.11912e+12 -8.30542e+13 1.48522e+14 -1.48735e+14 3.58031e+14)
(1.44556e+14 -1.09957e+13 -1.30947e+14 1.48334e+14 -2.05748e+14 3.63766e+14)
(1.0886e+14 -1.12744e+13 -1.75057e+14 1.10005e+14 -2.78977e+14 2.71427e+14)
(5.78244e+13 -9.79466e+12 -1.94861e+14 5.2706e+13 -3.66037e+14 1.32573e+14)
(1.95921e+13 -6.25799e+12 -1.83903e+14 6.75299e+12 -4.53312e+14 2.45305e+13)
(1.02936e+13 1.45088e+11 -1.5111e+14 -6.31346e+12 -5.12758e+14 -5.91276e+12)
(1.67891e+13 7.97993e+12 -1.13233e+14 1.76008e+13 -5.05581e+14 3.89642e+13)
(6.76037e+13 -1.79211e+12 -6.58813e+13 1.44812e+14 -4.00775e+14 2.66973e+14)
(3.07709e+14 -1.63219e+13 1.95441e+14 5.65531e+14 4.13774e+14 1.48067e+15)
(3.04302e+14 4.50426e+12 1.5684e+14 3.58614e+14 4.79377e+14 8.42311e+14)
(2.3262e+14 2.29643e+12 1.0131e+14 2.46739e+14 3.8145e+14 5.27023e+14)
(1.30558e+14 -2.10179e+12 9.32498e+13 1.3649e+14 2.08375e+14 2.56987e+14)
(6.59373e+13 -5.42382e+12 1.16701e+14 6.80132e+13 2.54585e+13 9.89992e+13)
(5.24665e+13 -6.46749e+12 1.46548e+14 5.34589e+13 -1.23717e+14 8.00278e+13)
(7.58671e+13 -5.1869e+12 1.58916e+14 7.78156e+13 -2.20102e+14 1.60705e+14)
(1.04404e+14 -2.25381e+12 1.42377e+14 1.08071e+14 -2.63765e+14 2.53384e+14)
(1.08013e+14 1.33863e+12 1.04656e+14 1.12994e+14 -2.64453e+14 2.74607e+14)
(7.76072e+13 4.46459e+12 6.55454e+13 8.34227e+13 -2.35035e+14 1.99412e+14)
(2.65503e+13 6.31928e+12 4.17841e+13 3.37933e+13 -1.88708e+14 6.62921e+13)
(-2.01439e+13 6.35826e+12 3.65935e+13 -1.03287e+13 -1.35111e+14 -5.45985e+13)
(-4.35072e+13 4.36167e+12 4.04064e+13 -2.98866e+13 -8.19101e+13 -1.1199e+14)
(-3.95239e+13 1.0566e+12 4.03912e+13 -2.14205e+13 -3.4623e+13 -9.70671e+13)
(-1.72889e+13 -2.0436e+12 2.81082e+13 5.10389e+12 2.68668e+12 -3.60632e+13)
(7.75554e+12 -3.44672e+12 2.27772e+12 3.30584e+13 2.6622e+13 2.8765e+13)
(2.22095e+13 -2.64989e+12 -3.04556e+13 4.71275e+13 3.49411e+13 6.08214e+13)
(2.24771e+13 -8.52095e+11 -5.70305e+13 4.22453e+13 2.78959e+13 5.08495e+13)
(1.92582e+13 -9.55103e+10 -6.62427e+13 3.08069e+13 6.47636e+12 2.92988e+13)
(2.82314e+13 -1.21112e+12 -5.85987e+13 3.29859e+13 -2.68064e+13 4.22418e+13)
(5.75633e+13 -3.60683e+12 -4.80646e+13 6.00101e+13 -6.65903e+13 1.16243e+14)
(9.80247e+13 -6.49658e+12 -5.36255e+13 1.02388e+14 -1.09186e+14 2.28417e+14)
(1.26532e+14 -9.20573e+12 -8.48258e+13 1.34249e+14 -1.56467e+14 3.13378e+14)
(1.22357e+14 -1.09224e+13 -1.32471e+14 1.31523e+14 -2.13979e+14 3.09677e+14)
(8.55925e+13 -1.11855e+13 -1.74637e+14 9.22299e+13 -2.8572e+14 2.13474e+14)
(3.75787e+13 -9.95113e+12 -1.92339e+14 3.80212e+13 -3.71163e+14 8.16788e+13)
(7.51527e+12 -6.83194e+12 -1.80973e+14 4.17593e+11 -4.5843e+14 -6.48018e+12)