/*--------------------------------*- C++ -*----------------------------------*\
| =========                 |                                                 |
| \\      /  F ield         | OpenFOAM: The Open Source CFD Toolbox           |
|  \\    /   O peration     | Version:  2106                                  |
|   \\  /    A nd           | Website:  www.openfoam.com                      |
|    \\/     M anipulation  |                                                 |
\*---------------------------------------------------------------------------*/
FoamFile
{
    version     2.0;
    format      ascii;
    arch        "LSB;label=32;scalar=64";
    class       volVectorField;
    location    "453";
    object      D;
}
// * * * * * * * * * * * * * * * * * * * * * * * * * * * * * * * * * * * * * //

dimensions      [0 1 0 0 0 0 0];

internalField   nonuniform List<vector> 
9000
(
(1.14022e-05 2.0855e-05 3.13423e-06)
(1.32535e-06 2.19605e-05 8.24202e-08)
(2.19125e-07 2.33125e-05 1.2298e-06)
(3.89786e-08 2.3615e-05 1.44321e-06)
(4.92776e-09 2.3624e-05 1.44639e-06)
(1.92598e-09 2.35895e-05 1.42459e-06)
(2.1513e-09 2.3609e-05 1.43661e-06)
(8.91469e-10 2.35889e-05 1.42453e-06)
(2.11584e-09 2.35884e-05 1.42415e-06)
(2.81712e-10 2.36156e-05 1.4416e-06)
(-2.2613e-09 2.36003e-05 1.43024e-06)
(1.82779e-09 2.35728e-05 1.41204e-06)
(2.98042e-09 2.36118e-05 1.43927e-06)
(-1.13828e-09 2.36127e-05 1.43954e-06)
(1.2141e-10 2.36038e-05 1.43211e-06)
(1.17773e-09 2.36168e-05 1.44213e-06)
(-1.57183e-09 2.36125e-05 1.43931e-06)
(-2.39033e-10 2.36044e-05 1.43252e-06)
(-1.5504e-09 2.36134e-05 1.44027e-06)
(-1.66132e-09 2.35746e-05 1.41369e-06)
(1.52547e-09 2.35859e-05 1.4225e-06)
(1.45721e-10 2.36141e-05 1.44048e-06)
(-2.28905e-09 2.36163e-05 1.44196e-06)
(-2.23232e-09 2.35907e-05 1.42563e-06)
(-2.32197e-09 2.36114e-05 1.43907e-06)
(-7.56874e-09 2.35987e-05 1.4301e-06)
(-3.83997e-08 2.35964e-05 1.42992e-06)
(-2.17363e-07 2.33062e-05 1.22589e-06)
(-1.32518e-06 2.19602e-05 8.2251e-08)
(-1.14025e-05 2.0854e-05 3.13381e-06)
(1.10756e-05 1.25651e-05 -5.84629e-06)
(1.223e-06 1.31894e-05 -9.25907e-06)
(1.43161e-07 1.40068e-05 -8.68754e-06)
(2.13074e-08 1.42114e-05 -8.60724e-06)
(5.36973e-09 1.42175e-05 -8.60808e-06)
(2.90252e-09 1.42001e-05 -8.60634e-06)
(2.21749e-09 1.42067e-05 -8.60971e-06)
(1.37537e-09 1.42005e-05 -8.60549e-06)
(1.16404e-09 1.42e-05 -8.60575e-06)
(8.6848e-10 1.42107e-05 -8.60919e-06)
(3.56114e-10 1.42074e-05 -8.607e-06)
(5.24634e-10 1.41967e-05 -8.60325e-06)
(4.34824e-10 1.42076e-05 -8.60956e-06)
(-1.20254e-10 1.42065e-05 -8.60859e-06)
(-5.2704e-11 1.42099e-05 -8.60697e-06)
(-6.83246e-13 1.42116e-05 -8.60912e-06)
(-2.49359e-10 1.42064e-05 -8.60863e-06)
(-1.28598e-10 1.42102e-05 -8.60692e-06)
(-3.41375e-10 1.42093e-05 -8.60925e-06)
(-6.14357e-10 1.4198e-05 -8.60324e-06)
(-8.77675e-10 1.41986e-05 -8.60523e-06)
(-1.15991e-09 1.4209e-05 -8.60994e-06)
(-1.52994e-09 1.42113e-05 -8.6092e-06)
(-1.96152e-09 1.42014e-05 -8.60566e-06)
(-2.6775e-09 1.42071e-05 -8.61003e-06)
(-5.56298e-09 1.42082e-05 -8.6043e-06)
(-2.13224e-08 1.42059e-05 -8.60513e-06)
(-1.43169e-07 1.40002e-05 -8.68755e-06)
(-1.22311e-06 1.31891e-05 -9.25903e-06)
(-1.10758e-05 1.2564e-05 -5.8465e-06)
(1.11465e-05 7.77795e-06 -7.41009e-06)
(1.21896e-06 8.20058e-06 -1.09328e-05)
(1.30074e-07 8.74769e-06 -1.04557e-05)
(1.57508e-08 8.89467e-06 -1.04013e-05)
(5.50387e-09 8.90064e-06 -1.04033e-05)
(3.23428e-09 8.8953e-06 -1.04004e-05)
(2.22868e-09 8.8924e-06 -1.04036e-05)
(1.75935e-09 8.89776e-06 -1.04004e-05)
(6.30887e-10 8.89706e-06 -1.04007e-05)
(7.48866e-10 8.89562e-06 -1.04034e-05)
(1.41552e-09 8.89328e-06 -1.04026e-05)
(2.24496e-10 8.89515e-06 -1.0399e-05)
(-8.40188e-10 8.89208e-06 -1.0402e-05)
(6.28916e-11 8.89596e-06 -1.04017e-05)
(1.11868e-10 8.89524e-06 -1.04028e-05)
(-5.1996e-10 8.89635e-06 -1.04035e-05)
(8.02197e-11 8.89593e-06 -1.04018e-05)
(2.10794e-10 8.89525e-06 -1.04028e-05)
(3.1271e-10 8.89478e-06 -1.04031e-05)
(-4.45644e-11 8.89604e-06 -1.03995e-05)
(-1.76906e-09 8.8967e-06 -1.03996e-05)
(-1.87566e-09 8.89284e-06 -1.0403e-05)
(-1.07294e-09 8.89623e-06 -1.04036e-05)
(-1.86049e-09 8.89749e-06 -1.04011e-05)
(-2.76219e-09 8.89124e-06 -1.04031e-05)
(-4.69775e-09 8.90308e-06 -1.04001e-05)
(-1.64124e-08 8.89097e-06 -1.04001e-05)
(-1.30705e-07 8.74614e-06 -1.04539e-05)
(-1.219e-06 8.20041e-06 -1.09326e-05)
(-1.11464e-05 7.77638e-06 -7.41053e-06)
(1.15321e-05 4.89075e-06 -7.09739e-06)
(1.26136e-06 5.16022e-06 -1.0743e-05)
(1.42846e-07 5.55779e-06 -1.02383e-05)
(1.68914e-08 5.66425e-06 -1.018e-05)
(5.02075e-09 5.67e-06 -1.01823e-05)
(3.20111e-09 5.66668e-06 -1.0182e-05)
(2.33572e-09 5.66302e-06 -1.01823e-05)
(1.63792e-09 5.66787e-06 -1.01834e-05)
(8.22133e-10 5.66623e-06 -1.01826e-05)
(9.06797e-10 5.66668e-06 -1.01822e-05)
(1.31812e-09 5.66488e-06 -1.01822e-05)
(4.83592e-11 5.66594e-06 -1.01822e-05)
(-6.45907e-10 5.66631e-06 -1.0181e-05)
(2.55565e-10 5.67164e-06 -1.0182e-05)
(5.6891e-12 5.66677e-06 -1.01821e-05)
(-4.18611e-10 5.66733e-06 -1.01824e-05)
(8.66731e-11 5.67159e-06 -1.01821e-05)
(1.81081e-10 5.66674e-06 -1.01821e-05)
(1.34267e-10 5.66609e-06 -1.01815e-05)
(-2.54506e-10 5.66676e-06 -1.0183e-05)
(-1.71235e-09 5.66718e-06 -1.01825e-05)
(-1.74713e-09 5.66628e-06 -1.01814e-05)
(-1.10926e-09 5.66735e-06 -1.01824e-05)
(-2.03268e-09 5.6663e-06 -1.01834e-05)
(-2.72213e-09 5.66389e-06 -1.01811e-05)
(-4.28808e-09 5.67139e-06 -1.01828e-05)
(-1.72422e-08 5.6618e-06 -1.01794e-05)
(-1.43512e-07 5.56094e-06 -1.02372e-05)
(-1.26163e-06 5.16017e-06 -1.07428e-05)
(-1.15315e-05 4.88834e-06 -7.09717e-06)
(1.20069e-05 3.08872e-06 -6.68472e-06)
(1.32021e-06 3.23597e-06 -1.04719e-05)
(1.61215e-07 3.5331e-06 -9.93135e-06)
(2.00798e-08 3.61035e-06 -9.86561e-06)
(4.82553e-09 3.61506e-06 -9.86752e-06)
(2.85066e-09 3.61754e-06 -9.86864e-06)
(2.35213e-09 3.61137e-06 -9.86812e-06)
(1.52957e-09 3.61442e-06 -9.86892e-06)
(1.00051e-09 3.61449e-06 -9.86845e-06)
(1.12352e-09 3.61329e-06 -9.86789e-06)
(1.04321e-09 3.61155e-06 -9.86778e-06)
(1.50167e-10 3.61284e-06 -9.86824e-06)
(-3.97671e-10 3.61582e-06 -9.86845e-06)
(2.3021e-10 3.61688e-06 -9.86925e-06)
(4.90882e-11 3.61385e-06 -9.868e-06)
(-3.84126e-10 3.61384e-06 -9.86837e-06)
(2.84007e-11 3.61678e-06 -9.86936e-06)
(1.84291e-10 3.61384e-06 -9.86802e-06)
(-9.82824e-11 3.61288e-06 -9.86724e-06)
(-4.65896e-10 3.61354e-06 -9.86873e-06)
(-1.37637e-09 3.61398e-06 -9.86831e-06)
(-1.49725e-09 3.6152e-06 -9.86796e-06)
(-1.42573e-09 3.61427e-06 -9.86825e-06)
(-2.19593e-09 3.61432e-06 -9.86885e-06)
(-2.48853e-09 3.61439e-06 -9.86806e-06)
(-4.24025e-09 3.61647e-06 -9.86815e-06)
(-2.038e-08 3.60847e-06 -9.86526e-06)
(-1.61702e-07 3.53474e-06 -9.93214e-06)
(-1.32058e-06 3.23598e-06 -1.04717e-05)
(-1.20055e-05 3.08836e-06 -6.68444e-06)
(1.24216e-05 1.94938e-06 -6.45352e-06)
(1.37795e-06 2.01624e-06 -1.03624e-05)
(1.77924e-07 2.2333e-06 -9.79611e-06)
(2.35014e-08 2.29242e-06 -9.7261e-06)
(5.02871e-09 2.298e-06 -9.72805e-06)
(2.69416e-09 2.30054e-06 -9.73013e-06)
(2.21622e-09 2.29677e-06 -9.72902e-06)
(1.60997e-09 2.29658e-06 -9.72903e-06)
(1.00882e-09 2.29846e-06 -9.7293e-06)
(9.1253e-10 2.29502e-06 -9.72854e-06)
(8.6801e-10 2.29559e-06 -9.72865e-06)
(2.7072e-10 2.29458e-06 -9.72824e-06)
(-1.47416e-10 2.2963e-06 -9.72972e-06)
(3.1033e-10 2.29802e-06 -9.72924e-06)
(4.51818e-11 2.29614e-06 -9.72858e-06)
(-3.18994e-10 2.29532e-06 -9.72863e-06)
(-3.78957e-12 2.2979e-06 -9.72928e-06)
(4.15696e-11 2.29619e-06 -9.72863e-06)
(-2.5571e-10 2.29449e-06 -9.72799e-06)
(-5.01195e-10 2.29557e-06 -9.72902e-06)
(-1.31395e-09 2.29595e-06 -9.72855e-06)
(-1.31737e-09 2.29796e-06 -9.72969e-06)
(-1.25265e-09 2.29655e-06 -9.72888e-06)
(-2.32155e-09 2.29756e-06 -9.72883e-06)
(-2.48905e-09 2.29828e-06 -9.73015e-06)
(-4.39044e-09 2.29742e-06 -9.72829e-06)
(-2.39417e-08 2.29018e-06 -9.72515e-06)
(-1.78227e-07 2.23419e-06 -9.79683e-06)
(-1.37813e-06 2.01627e-06 -1.03622e-05)
(-1.24198e-05 1.95119e-06 -6.45369e-06)
(1.27257e-05 1.22843e-06 -6.34323e-06)
(1.4258e-06 1.25143e-06 -1.03402e-05)
(1.9124e-07 1.40762e-06 -9.75746e-06)
(2.67857e-08 1.45113e-06 -9.68508e-06)
(5.30485e-09 1.45733e-06 -9.68686e-06)
(2.43752e-09 1.45745e-06 -9.68891e-06)
(2.11464e-09 1.45727e-06 -9.68866e-06)
(1.6037e-09 1.45496e-06 -9.68792e-06)
(8.78429e-10 1.45606e-06 -9.68855e-06)
(9.29881e-10 1.45485e-06 -9.68809e-06)
(7.03974e-10 1.45585e-06 -9.688e-06)
(6.07224e-11 1.45415e-06 -9.68795e-06)
(1.97432e-10 1.45474e-06 -9.68832e-06)
(4.81511e-10 1.45578e-06 -9.68787e-06)
(-8.67893e-11 1.45457e-06 -9.68765e-06)
(-2.37312e-10 1.45487e-06 -9.68791e-06)
(7.57034e-11 1.45567e-06 -9.68788e-06)
(-2.64591e-10 1.45465e-06 -9.6877e-06)
(-3.70929e-10 1.45401e-06 -9.68813e-06)
(-3.9937e-10 1.45344e-06 -9.68768e-06)
(-1.06295e-09 1.45349e-06 -9.6875e-06)
(-1.1273e-09 1.45725e-06 -9.68853e-06)
(-1.46764e-09 1.455e-06 -9.68795e-06)
(-2.35927e-09 1.45626e-06 -9.68859e-06)
(-2.3456e-09 1.45749e-06 -9.68939e-06)
(-4.8235e-09 1.45462e-06 -9.68688e-06)
(-2.70246e-08 1.44982e-06 -9.6847e-06)
(-1.9133e-07 1.40813e-06 -9.75753e-06)
(-1.42598e-06 1.25147e-06 -1.03398e-05)
(-1.27245e-05 1.22972e-06 -6.34395e-06)
(1.29267e-05 7.73105e-07 -6.28778e-06)
(1.46157e-06 7.76242e-07 -1.03426e-05)
(2.01372e-07 8.86452e-07 -9.74947e-06)
(2.90915e-08 9.17229e-07 -9.67573e-06)
(5.5726e-09 9.21815e-07 -9.67772e-06)
(2.43874e-09 9.22035e-07 -9.6789e-06)
(1.98731e-09 9.23047e-07 -9.67949e-06)
(1.48831e-09 9.20538e-07 -9.67859e-06)
(9.762e-10 9.21144e-07 -9.6788e-06)
(9.00009e-10 9.21889e-07 -9.67874e-06)
(5.49005e-10 9.21127e-07 -9.67894e-06)
(3.43007e-11 9.20739e-07 -9.67875e-06)
(2.84137e-10 9.22342e-07 -9.6791e-06)
(4.83037e-10 9.21053e-07 -9.67844e-06)
(-1.02222e-11 9.2015e-07 -9.67847e-06)
(-1.6179e-10 9.2177e-07 -9.67859e-06)
(-5.40875e-11 9.20934e-07 -9.67847e-06)
(-3.33053e-10 9.20284e-07 -9.67843e-06)
(-5.35229e-10 9.20455e-07 -9.67899e-06)
(-6.34137e-10 9.20127e-07 -9.67875e-06)
(-7.915e-10 9.19593e-07 -9.6788e-06)
(-8.31043e-10 9.21912e-07 -9.67914e-06)
(-1.41572e-09 9.20627e-07 -9.67865e-06)
(-2.28103e-09 9.22648e-07 -9.67914e-06)
(-2.52416e-09 9.23952e-07 -9.67996e-06)
(-5.19478e-09 9.20906e-07 -9.67782e-06)
(-2.90645e-08 9.16552e-07 -9.67594e-06)
(-2.01393e-07 8.86615e-07 -9.74923e-06)
(-1.46179e-06 7.76144e-07 -1.0342e-05)
(-1.29261e-05 7.73996e-07 -6.28822e-06)
(1.30512e-05 4.85787e-07 -6.25633e-06)
(1.48607e-06 4.82013e-07 -1.03471e-05)
(2.08946e-07 5.56893e-07 -9.74755e-06)
(3.08288e-08 5.79268e-07 -9.6729e-06)
(5.7907e-09 5.82599e-07 -9.6749e-06)
(2.46769e-09 5.8288e-07 -9.6758e-06)
(1.88358e-09 5.83443e-07 -9.67645e-06)
(1.43159e-09 5.82001e-07 -9.6758e-06)
(1.03586e-09 5.82325e-07 -9.67578e-06)
(8.66003e-10 5.82879e-07 -9.67576e-06)
(3.49772e-10 5.82383e-07 -9.67582e-06)
(1.92129e-10 5.82765e-07 -9.67646e-06)
(4.38719e-10 5.84246e-07 -9.67632e-06)
(2.90024e-10 5.82361e-07 -9.67564e-06)
(1.95783e-11 5.81493e-07 -9.67585e-06)
(-9.35542e-11 5.82726e-07 -9.67579e-06)
(-1.37341e-10 5.82252e-07 -9.67569e-06)
(-4.97872e-10 5.81762e-07 -9.67572e-06)
(-4.64526e-10 5.81959e-07 -9.67634e-06)
(-5.66709e-10 5.82649e-07 -9.67612e-06)
(-7.60814e-10 5.83173e-07 -9.67654e-06)
(-7.2467e-10 5.82834e-07 -9.6759e-06)
(-1.38159e-09 5.82111e-07 -9.67582e-06)
(-2.04494e-09 5.83317e-07 -9.67629e-06)
(-2.46528e-09 5.85096e-07 -9.67662e-06)
(-5.79815e-09 5.83271e-07 -9.67499e-06)
(-3.08728e-08 5.78635e-07 -9.67372e-06)
(-2.08784e-07 5.56835e-07 -9.74728e-06)
(-1.48625e-06 4.8176e-07 -1.03469e-05)
(-1.3051e-05 4.86513e-07 -6.25646e-06)
(1.31253e-05 3.04218e-07 -6.23717e-06)
(1.5019e-06 2.99493e-07 -1.03496e-05)
(2.1446e-07 3.49253e-07 -9.74573e-06)
(3.2138e-08 3.6517e-07 -9.67087e-06)
(5.99185e-09 3.67405e-07 -9.67291e-06)
(2.50484e-09 3.67818e-07 -9.67373e-06)
(1.81282e-09 3.68129e-07 -9.67399e-06)
(1.38237e-09 3.67335e-07 -9.67382e-06)
(1.03787e-09 3.67502e-07 -9.67375e-06)
(8.37987e-10 3.67783e-07 -9.67354e-06)
(4.25896e-10 3.6759e-07 -9.67366e-06)
(2.85037e-10 3.6872e-07 -9.67412e-06)
(3.62633e-10 3.68692e-07 -9.67411e-06)
(1.32408e-10 3.67599e-07 -9.67364e-06)
(5.87285e-12 3.66395e-07 -9.67378e-06)
(-1.10347e-11 3.67718e-07 -9.67373e-06)
(-1.74484e-10 3.67535e-07 -9.67372e-06)
(-5.47199e-10 3.67013e-07 -9.67393e-06)
(-4.4392e-10 3.68801e-07 -9.67448e-06)
(-4.09419e-10 3.67132e-07 -9.67414e-06)
(-6.84148e-10 3.68862e-07 -9.67466e-06)
(-8.17324e-10 3.67825e-07 -9.67372e-06)
(-1.35634e-09 3.67453e-07 -9.67379e-06)
(-1.8993e-09 3.68108e-07 -9.67392e-06)
(-2.45637e-09 3.69064e-07 -9.67418e-06)
(-6.15031e-09 3.67989e-07 -9.67309e-06)
(-3.22342e-08 3.65887e-07 -9.67187e-06)
(-2.14239e-07 3.49034e-07 -9.74558e-06)
(-1.50202e-06 2.99294e-07 -1.03495e-05)
(-1.31255e-05 3.05031e-07 -6.23702e-06)
(1.31686e-05 1.8886e-07 -6.225e-06)
(1.51176e-06 1.85537e-07 -1.03506e-05)
(2.18352e-07 2.17937e-07 -9.74423e-06)
(3.30604e-08 2.28973e-07 -9.66919e-06)
(6.1204e-09 2.29915e-07 -9.67131e-06)
(2.59108e-09 2.30813e-07 -9.67208e-06)
(1.77141e-09 2.31027e-07 -9.67217e-06)
(1.33729e-09 2.30609e-07 -9.67217e-06)
(1.00774e-09 2.30711e-07 -9.67213e-06)
(8.10581e-10 2.3088e-07 -9.67204e-06)
(4.79934e-10 2.3073e-07 -9.672e-06)
(3.49348e-10 2.31152e-07 -9.67255e-06)
(3.33711e-10 2.31397e-07 -9.67207e-06)
(-6.02257e-11 2.30824e-07 -9.67199e-06)
(3.36793e-12 2.30484e-07 -9.67252e-06)
(1.36334e-10 2.30942e-07 -9.67203e-06)
(-2.33357e-10 2.30811e-07 -9.67205e-06)
(-4.12195e-10 2.299e-07 -9.67221e-06)
(-4.88644e-10 2.32473e-07 -9.67267e-06)
(-5.13852e-10 2.30931e-07 -9.67264e-06)
(-5.47364e-10 2.30928e-07 -9.67265e-06)
(-8.34147e-10 2.30778e-07 -9.67208e-06)
(-1.32979e-09 2.30724e-07 -9.67212e-06)
(-1.81111e-09 2.31042e-07 -9.6721e-06)
(-2.4716e-09 2.31523e-07 -9.67209e-06)
(-6.28635e-09 2.30792e-07 -9.67123e-06)
(-3.32499e-08 2.29328e-07 -9.67001e-06)
(-2.18221e-07 2.17489e-07 -9.74429e-06)
(-1.51179e-06 1.85398e-07 -1.03506e-05)
(-1.3169e-05 1.901e-07 -6.22498e-06)
(1.31935e-05 1.16477e-07 -6.218e-06)
(1.51782e-06 1.13505e-07 -1.03509e-05)
(2.21005e-07 1.34065e-07 -9.74321e-06)
(3.36606e-08 1.41492e-07 -9.66797e-06)
(6.22804e-09 1.42609e-07 -9.67052e-06)
(2.73155e-09 1.42615e-07 -9.67099e-06)
(1.75568e-09 1.42838e-07 -9.67098e-06)
(1.30344e-09 1.42632e-07 -9.67099e-06)
(9.928e-10 1.42716e-07 -9.67098e-06)
(7.86829e-10 1.42904e-07 -9.67089e-06)
(4.69845e-10 1.42589e-07 -9.6709e-06)
(3.99259e-10 1.42327e-07 -9.67103e-06)
(3.54156e-10 1.43086e-07 -9.67075e-06)
(-2.01473e-11 1.42811e-07 -9.67082e-06)
(1.28336e-11 1.43179e-07 -9.67128e-06)
(7.58468e-11 1.42916e-07 -9.67074e-06)
(-3.61879e-10 1.42879e-07 -9.67078e-06)
(-3.38154e-10 1.42778e-07 -9.67136e-06)
(-2.72716e-10 1.43756e-07 -9.67126e-06)
(-6.48703e-10 1.43486e-07 -9.67131e-06)
(-6.44521e-10 1.43354e-07 -9.6714e-06)
(-7.60511e-10 1.42447e-07 -9.67107e-06)
(-1.29545e-09 1.42747e-07 -9.67092e-06)
(-1.76225e-09 1.42841e-07 -9.67089e-06)
(-2.50518e-09 1.43086e-07 -9.6708e-06)
(-6.53291e-09 1.42394e-07 -9.67011e-06)
(-3.4038e-08 1.41388e-07 -9.66883e-06)
(-2.20816e-07 1.33172e-07 -9.74319e-06)
(-1.5176e-06 1.13411e-07 -1.03509e-05)
(-1.3194e-05 1.16707e-07 -6.21765e-06)
(1.32082e-05 6.94316e-08 -6.21375e-06)
(1.52112e-06 6.6814e-08 -1.03511e-05)
(2.22729e-07 7.92643e-08 -9.74255e-06)
(3.42656e-08 8.40063e-08 -9.66714e-06)
(6.28523e-09 8.50989e-08 -9.66964e-06)
(2.65869e-09 8.44172e-08 -9.67044e-06)
(1.76434e-09 8.48048e-08 -9.67025e-06)
(1.28217e-09 8.47132e-08 -9.67027e-06)
(9.89011e-10 8.47879e-08 -9.67025e-06)
(7.54951e-10 8.48688e-08 -9.67007e-06)
(3.72669e-10 8.44292e-08 -9.67037e-06)
(4.5047e-10 8.4993e-08 -9.67052e-06)
(4.50017e-10 8.50121e-08 -9.67e-06)
(-4.83706e-11 8.4842e-08 -9.6701e-06)
(2.03662e-11 8.43219e-08 -9.67053e-06)
(1.00823e-10 8.47953e-08 -9.66988e-06)
(-2.62186e-10 8.49084e-08 -9.66992e-06)
(-2.93999e-10 8.56877e-08 -9.67036e-06)
(-3.57675e-10 8.54047e-08 -9.67012e-06)
(-5.55681e-10 8.45876e-08 -9.67052e-06)
(-6.9928e-10 8.60428e-08 -9.67022e-06)
(-8.91354e-10 8.39684e-08 -9.6703e-06)
(-1.24655e-09 8.48355e-08 -9.67011e-06)
(-1.7405e-09 8.47488e-08 -9.67017e-06)
(-2.56308e-09 8.49182e-08 -9.67006e-06)
(-6.62199e-09 8.39139e-08 -9.6693e-06)
(-3.46147e-08 8.51077e-08 -9.66784e-06)
(-2.22616e-07 7.92394e-08 -9.74287e-06)
(-1.52089e-06 6.67016e-08 -1.0351e-05)
(-1.32081e-05 6.89157e-08 -6.21337e-06)
(1.32161e-05 3.56171e-08 -6.21134e-06)
(1.52302e-06 3.49304e-08 -1.03512e-05)
(2.23761e-07 4.15932e-08 -9.7422e-06)
(3.45773e-08 4.41451e-08 -9.66661e-06)
(6.2532e-09 4.37715e-08 -9.66954e-06)
(2.70529e-09 4.38064e-08 -9.66999e-06)
(1.81298e-09 4.46355e-08 -9.66984e-06)
(1.27126e-09 4.46064e-08 -9.66986e-06)
(9.65679e-10 4.46655e-08 -9.66985e-06)
(6.8804e-10 4.46175e-08 -9.6698e-06)
(5.03327e-10 4.38553e-08 -9.66993e-06)
(5.22251e-10 4.55354e-08 -9.66984e-06)
(3.37445e-10 4.4824e-08 -9.66954e-06)
(-1.69205e-10 4.47004e-08 -9.6697e-06)
(-6.82019e-12 4.46866e-08 -9.67033e-06)
(2.03171e-10 4.4438e-08 -9.66971e-06)
(-1.80639e-10 4.47116e-08 -9.6696e-06)
(-2.44837e-10 4.50837e-08 -9.66998e-06)
(-4.81015e-10 4.49466e-08 -9.6695e-06)
(-5.12095e-10 4.49775e-08 -9.67024e-06)
(-7.38935e-10 4.52745e-08 -9.66971e-06)
(-9.60951e-10 4.45299e-08 -9.6703e-06)
(-1.14382e-09 4.46514e-08 -9.6696e-06)
(-1.73343e-09 4.44621e-08 -9.66986e-06)
(-2.67749e-09 4.46952e-08 -9.66966e-06)
(-6.53318e-09 4.44993e-08 -9.66925e-06)
(-3.46663e-08 4.54881e-08 -9.66709e-06)
(-2.23812e-07 4.24406e-08 -9.7423e-06)
(-1.52287e-06 3.46994e-08 -1.03512e-05)
(-1.32162e-05 3.61647e-08 -6.21102e-06)
(1.32195e-05 1.1381e-08 -6.21026e-06)
(1.52401e-06 1.08233e-08 -1.03513e-05)
(2.24222e-07 1.28979e-08 -9.74207e-06)
(3.45563e-08 1.36106e-08 -9.66656e-06)
(6.18764e-09 1.32177e-08 -9.66949e-06)
(2.85973e-09 1.38683e-08 -9.67013e-06)
(1.92909e-09 1.38607e-08 -9.66966e-06)
(1.2688e-09 1.38677e-08 -9.66969e-06)
(9.50371e-10 1.3895e-08 -9.66967e-06)
(5.64406e-10 1.38707e-08 -9.6697e-06)
(5.56141e-10 1.38965e-08 -9.67008e-06)
(6.46117e-10 1.41581e-08 -9.66978e-06)
(2.97184e-10 1.3865e-08 -9.66927e-06)
(-8.78772e-11 1.39274e-08 -9.66953e-06)
(-4.31929e-11 1.44358e-08 -9.67e-06)
(1.14913e-10 1.34855e-08 -9.66982e-06)
(-1.22734e-10 1.38845e-08 -9.66938e-06)
(-2.34283e-10 1.40128e-08 -9.6696e-06)
(-3.78539e-10 1.39643e-08 -9.66945e-06)
(-4.91271e-10 1.48695e-08 -9.6697e-06)
(-7.69693e-10 1.41248e-08 -9.66947e-06)
(-9.91493e-10 1.43615e-08 -9.67003e-06)
(-1.23592e-09 1.38228e-08 -9.66955e-06)
(-1.7115e-09 1.34659e-08 -9.66988e-06)
(-2.56841e-09 1.38761e-08 -9.66947e-06)
(-6.50155e-09 1.43609e-08 -9.6689e-06)
(-3.48421e-08 1.41238e-08 -9.66682e-06)
(-2.24432e-07 1.33271e-08 -9.74221e-06)
(-1.52377e-06 1.02903e-08 -1.03515e-05)
(-1.32196e-05 1.12233e-08 -6.21002e-06)
(1.32198e-05 -1.03458e-08 -6.21007e-06)
(1.52383e-06 -1.08875e-08 -1.03513e-05)
(2.24207e-07 -1.30198e-08 -9.74206e-06)
(3.45797e-08 -1.39241e-08 -9.66662e-06)
(6.32864e-09 -1.30708e-08 -9.66942e-06)
(2.83567e-09 -1.31244e-08 -9.66983e-06)
(1.82079e-09 -1.40018e-08 -9.66966e-06)
(1.27115e-09 -1.3959e-08 -9.66967e-06)
(9.47972e-10 -1.39554e-08 -9.66968e-06)
(6.67299e-10 -1.39559e-08 -9.66972e-06)
(5.449e-10 -1.31484e-08 -9.66979e-06)
(5.10115e-10 -1.41829e-08 -9.66981e-06)
(3.02608e-10 -1.42299e-08 -9.66948e-06)
(-5.46633e-11 -1.39309e-08 -9.66953e-06)
(-9.62952e-11 -1.43126e-08 -9.66999e-06)
(9.14858e-11 -1.47543e-08 -9.66981e-06)
(-6.70248e-11 -1.40534e-08 -9.66951e-06)
(-2.02481e-10 -1.4092e-08 -9.6696e-06)
(-3.22976e-10 -1.3914e-08 -9.66946e-06)
(-4.92223e-10 -1.35176e-08 -9.66974e-06)
(-8.20972e-10 -1.39039e-08 -9.66946e-06)
(-1.00403e-09 -1.4373e-08 -9.67004e-06)
(-1.27743e-09 -1.39893e-08 -9.66962e-06)
(-1.70681e-09 -1.48061e-08 -9.66985e-06)
(-2.50963e-09 -1.40286e-08 -9.66948e-06)
(-6.51945e-09 -1.44574e-08 -9.66878e-06)
(-3.48431e-08 -1.41424e-08 -9.66682e-06)
(-2.24626e-07 -1.27611e-08 -9.742e-06)
(-1.52384e-06 -1.19721e-08 -1.03513e-05)
(-1.32193e-05 -1.12738e-08 -6.21006e-06)
(1.32164e-05 -3.61334e-08 -6.21148e-06)
(1.52292e-06 -3.50308e-08 -1.03512e-05)
(2.23721e-07 -4.17651e-08 -9.74221e-06)
(3.46498e-08 -4.46396e-08 -9.66687e-06)
(6.39836e-09 -4.37559e-08 -9.66927e-06)
(2.65069e-09 -4.43259e-08 -9.67005e-06)
(1.76654e-09 -4.47777e-08 -9.66986e-06)
(1.28218e-09 -4.47129e-08 -9.66984e-06)
(9.62796e-10 -4.46956e-08 -9.66986e-06)
(7.16876e-10 -4.46832e-08 -9.66985e-06)
(4.72364e-10 -4.43692e-08 -9.67001e-06)
(4.16463e-10 -4.55348e-08 -9.66991e-06)
(3.58278e-10 -4.522e-08 -9.66994e-06)
(-8.85419e-11 -4.46601e-08 -9.66967e-06)
(-1.92826e-10 -4.44423e-08 -9.67027e-06)
(1.53651e-10 -4.45913e-08 -9.6702e-06)
(4.98485e-12 -4.48021e-08 -9.66975e-06)
(-1.69112e-10 -4.51782e-08 -9.66998e-06)
(-2.78507e-10 -4.47793e-08 -9.66948e-06)
(-5.12694e-10 -4.45629e-08 -9.66975e-06)
(-9.26158e-10 -4.48113e-08 -9.66964e-06)
(-1.00397e-09 -4.45378e-08 -9.67031e-06)
(-1.29916e-09 -4.46881e-08 -9.66981e-06)
(-1.71902e-09 -4.4703e-08 -9.67033e-06)
(-2.50239e-09 -4.47727e-08 -9.6697e-06)
(-6.53414e-09 -4.47135e-08 -9.66922e-06)
(-3.46211e-08 -4.5427e-08 -9.66704e-06)
(-2.24398e-07 -4.14413e-08 -9.74201e-06)
(-1.52311e-06 -3.49396e-08 -1.03514e-05)
(-1.32153e-05 -3.61767e-08 -6.21111e-06)
(1.32083e-05 -6.9743e-08 -6.21353e-06)
(1.52107e-06 -6.68875e-08 -1.03511e-05)
(2.2265e-07 -7.95318e-08 -9.74266e-06)
(3.43656e-08 -8.49278e-08 -9.66738e-06)
(6.43373e-09 -8.5142e-08 -9.66948e-06)
(2.60929e-09 -8.47028e-08 -9.67026e-06)
(1.74658e-09 -8.48951e-08 -9.67029e-06)
(1.2981e-09 -8.48233e-08 -9.67026e-06)
(1.002e-09 -8.47844e-08 -9.67026e-06)
(7.41902e-10 -8.48381e-08 -9.67005e-06)
(3.14434e-10 -8.47126e-08 -9.67023e-06)
(3.23648e-10 -8.4923e-08 -9.6706e-06)
(4.86938e-10 -8.57582e-08 -9.67034e-06)
(1.14073e-10 -8.48576e-08 -9.66994e-06)
(-5.56461e-11 -8.38313e-08 -9.67027e-06)
(1.1462e-11 -8.39202e-08 -9.67003e-06)
(-1.99083e-10 -8.49529e-08 -9.67015e-06)
(-1.63482e-10 -8.57927e-08 -9.67037e-06)
(-2.11706e-10 -8.50936e-08 -9.66987e-06)
(-5.20477e-10 -8.48417e-08 -9.67009e-06)
(-8.10107e-10 -8.51254e-08 -9.67005e-06)
(-9.81612e-10 -8.39806e-08 -9.67029e-06)
(-1.3094e-09 -8.4758e-08 -9.6702e-06)
(-1.72743e-09 -8.39586e-08 -9.67041e-06)
(-2.51067e-09 -8.48539e-08 -9.67013e-06)
(-6.60132e-09 -8.40886e-08 -9.66933e-06)
(-3.44514e-08 -8.50691e-08 -9.66761e-06)
(-2.23004e-07 -7.91583e-08 -9.74214e-06)
(-1.52121e-06 -6.56718e-08 -1.03511e-05)
(-1.32076e-05 -6.88965e-08 -6.21341e-06)
(1.31936e-05 -1.16656e-07 -6.2179e-06)
(1.51778e-06 -1.13503e-07 -1.03509e-05)
(2.20843e-07 -1.34496e-07 -9.74354e-06)
(3.37973e-08 -1.4156e-07 -9.66845e-06)
(6.44488e-09 -1.4256e-07 -9.67044e-06)
(2.69815e-09 -1.42786e-07 -9.67093e-06)
(1.755e-09 -1.4282e-07 -9.67105e-06)
(1.31901e-09 -1.42714e-07 -9.67101e-06)
(1.03893e-09 -1.42669e-07 -9.67098e-06)
(7.46315e-10 -1.42835e-07 -9.67066e-06)
(3.71887e-10 -1.42766e-07 -9.67089e-06)
(1.91258e-10 -1.42111e-07 -9.67102e-06)
(3.77005e-10 -1.42821e-07 -9.67133e-06)
(2.921e-10 -1.42843e-07 -9.67078e-06)
(2.57491e-11 -1.42273e-07 -9.67107e-06)
(-5.71615e-11 -1.42455e-07 -9.67077e-06)
(-3.75646e-10 -1.42966e-07 -9.67089e-06)
(-1.80972e-10 -1.42876e-07 -9.67138e-06)
(-9.15675e-11 -1.43058e-07 -9.67081e-06)
(-5.2075e-10 -1.42854e-07 -9.67084e-06)
(-7.58982e-10 -1.43379e-07 -9.67091e-06)
(-9.43414e-10 -1.42497e-07 -9.67104e-06)
(-1.30945e-09 -1.42677e-07 -9.67093e-06)
(-1.74242e-09 -1.42292e-07 -9.67119e-06)
(-2.52887e-09 -1.42799e-07 -9.67087e-06)
(-6.52974e-09 -1.42523e-07 -9.67017e-06)
(-3.39515e-08 -1.41276e-07 -9.66867e-06)
(-2.21016e-07 -1.33957e-07 -9.74293e-06)
(-1.51776e-06 -1.1288e-07 -1.03512e-05)
(-1.31938e-05 -1.16689e-07 -6.21763e-06)
(1.31685e-05 -1.88966e-07 -6.22499e-06)
(1.51171e-06 -1.85433e-07 -1.03504e-05)
(2.18338e-07 -2.18664e-07 -9.74448e-06)
(3.32098e-08 -2.28216e-07 -9.66935e-06)
(6.18344e-09 -2.29791e-07 -9.67134e-06)
(2.58589e-09 -2.30922e-07 -9.6721e-06)
(1.78519e-09 -2.30812e-07 -9.67225e-06)
(1.34489e-09 -2.30643e-07 -9.6722e-06)
(1.06937e-09 -2.306e-07 -9.67213e-06)
(7.32357e-10 -2.30821e-07 -9.67174e-06)
(3.65465e-10 -2.30866e-07 -9.67204e-06)
(2.87002e-10 -2.30687e-07 -9.67228e-06)
(3.34284e-10 -2.30016e-07 -9.67218e-06)
(2.15896e-10 -2.30794e-07 -9.67203e-06)
(4.62399e-11 -2.30492e-07 -9.67211e-06)
(-9.47118e-11 -2.30673e-07 -9.67199e-06)
(-2.6913e-10 -2.31119e-07 -9.67217e-06)
(-1.83329e-10 -2.30005e-07 -9.67225e-06)
(-1.98348e-10 -2.30971e-07 -9.67211e-06)
(-5.56757e-10 -2.30872e-07 -9.67203e-06)
(-7.47268e-10 -2.31914e-07 -9.67244e-06)
(-8.81172e-10 -2.3089e-07 -9.67203e-06)
(-1.29611e-09 -2.30652e-07 -9.6721e-06)
(-1.76572e-09 -2.30437e-07 -9.67218e-06)
(-2.55851e-09 -2.30855e-07 -9.67202e-06)
(-6.29749e-09 -2.30879e-07 -9.6713e-06)
(-3.31848e-08 -2.28806e-07 -9.66958e-06)
(-2.18327e-07 -2.1763e-07 -9.74403e-06)
(-1.51189e-06 -1.85094e-07 -1.03506e-05)
(-1.3169e-05 -1.9011e-07 -6.22493e-06)
(1.31253e-05 -3.04285e-07 -6.23719e-06)
(1.50181e-06 -2.99487e-07 -1.03491e-05)
(2.14532e-07 -3.48815e-07 -9.74596e-06)
(3.23296e-08 -3.6488e-07 -9.67112e-06)
(5.95979e-09 -3.67081e-07 -9.67313e-06)
(2.55414e-09 -3.67894e-07 -9.67379e-06)
(1.84e-09 -3.67514e-07 -9.67392e-06)
(1.3706e-09 -3.67309e-07 -9.67385e-06)
(1.08876e-09 -3.67288e-07 -9.67373e-06)
(7.02571e-10 -3.67516e-07 -9.67332e-06)
(3.29253e-10 -3.6775e-07 -9.67373e-06)
(3.22715e-10 -3.67883e-07 -9.67383e-06)
(3.25978e-10 -3.67315e-07 -9.67393e-06)
(1.95968e-10 -3.67554e-07 -9.6737e-06)
(5.85377e-11 -3.67302e-07 -9.67372e-06)
(-1.34951e-10 -3.67404e-07 -9.67371e-06)
(-2.13476e-10 -3.68203e-07 -9.67407e-06)
(-1.58017e-10 -3.6718e-07 -9.67399e-06)
(-2.4561e-10 -3.67651e-07 -9.67383e-06)
(-6.47818e-10 -3.6761e-07 -9.67368e-06)
(-7.68302e-10 -3.6957e-07 -9.67432e-06)
(-7.76014e-10 -3.6803e-07 -9.67365e-06)
(-1.26474e-09 -3.67359e-07 -9.67375e-06)
(-1.80128e-09 -3.67215e-07 -9.67376e-06)
(-2.6068e-09 -3.67755e-07 -9.67369e-06)
(-6.16901e-09 -3.68044e-07 -9.67317e-06)
(-3.21595e-08 -3.64981e-07 -9.67126e-06)
(-2.14328e-07 -3.48672e-07 -9.7454e-06)
(-1.50212e-06 -2.99096e-07 -1.03495e-05)
(-1.31257e-05 -3.05089e-07 -6.23697e-06)
(1.30511e-05 -4.8583e-07 -6.25635e-06)
(1.48612e-06 -4.82083e-07 -1.03469e-05)
(2.09022e-07 -5.55151e-07 -9.74702e-06)
(3.08278e-08 -5.79251e-07 -9.67296e-06)
(5.72152e-09 -5.82103e-07 -9.67499e-06)
(2.57481e-09 -5.82963e-07 -9.67596e-06)
(1.92766e-09 -5.82076e-07 -9.67583e-06)
(1.38167e-09 -5.81904e-07 -9.67582e-06)
(1.0863e-09 -5.81961e-07 -9.67569e-06)
(6.56417e-10 -5.8216e-07 -9.67536e-06)
(2.86634e-10 -5.82667e-07 -9.67591e-06)
(3.40364e-10 -5.83069e-07 -9.67601e-06)
(3.30145e-10 -5.82359e-07 -9.67582e-06)
(2.02437e-10 -5.82331e-07 -9.6757e-06)
(8.5198e-11 -5.81976e-07 -9.67572e-06)
(-2.03353e-10 -5.82011e-07 -9.67573e-06)
(-1.8692e-10 -5.83473e-07 -9.67598e-06)
(-8.4989e-11 -5.82038e-07 -9.67583e-06)
(-2.68563e-10 -5.82259e-07 -9.67589e-06)
(-8.27586e-10 -5.82258e-07 -9.67568e-06)
(-8.14398e-10 -5.83999e-07 -9.67642e-06)
(-5.96638e-10 -5.83215e-07 -9.67587e-06)
(-1.21673e-09 -5.81982e-07 -9.67577e-06)
(-1.85586e-09 -5.81869e-07 -9.67575e-06)
(-2.67967e-09 -5.82753e-07 -9.67584e-06)
(-5.86312e-09 -5.83332e-07 -9.67509e-06)
(-3.06794e-08 -5.78841e-07 -9.67315e-06)
(-2.08873e-07 -5.55903e-07 -9.7469e-06)
(-1.48635e-06 -4.81604e-07 -1.0347e-05)
(-1.30512e-05 -4.86645e-07 -6.25652e-06)
(1.29266e-05 -7.73126e-07 -6.28779e-06)
(1.46172e-06 -7.76249e-07 -1.03426e-05)
(2.01425e-07 -8.84832e-07 -9.74897e-06)
(2.89452e-08 -9.17518e-07 -9.67579e-06)
(5.45213e-09 -9.2098e-07 -9.67776e-06)
(2.64151e-09 -9.22214e-07 -9.67918e-06)
(2.05097e-09 -9.20599e-07 -9.67845e-06)
(1.37606e-09 -9.20374e-07 -9.67861e-06)
(1.05361e-09 -9.20574e-07 -9.67855e-06)
(5.89814e-10 -9.20546e-07 -9.67848e-06)
(2.5494e-10 -9.21609e-07 -9.67909e-06)
(3.54954e-10 -9.22323e-07 -9.67935e-06)
(3.26711e-10 -9.213e-07 -9.67877e-06)
(2.21399e-10 -9.21083e-07 -9.67854e-06)
(1.34984e-10 -9.20506e-07 -9.67853e-06)
(-3.24589e-10 -9.20457e-07 -9.67851e-06)
(-1.74448e-10 -9.21137e-07 -9.67886e-06)
(6.86995e-11 -9.20615e-07 -9.6786e-06)
(-2.76435e-10 -9.20678e-07 -9.67872e-06)
(-8.50099e-10 -9.2075e-07 -9.67849e-06)
(-8.73396e-10 -9.20925e-07 -9.67914e-06)
(-5.94787e-10 -9.22556e-07 -9.67926e-06)
(-1.15851e-09 -9.20455e-07 -9.67858e-06)
(-1.93265e-09 -9.20365e-07 -9.67856e-06)
(-2.8051e-09 -9.21855e-07 -9.67907e-06)
(-5.63064e-09 -9.20984e-07 -9.6779e-06)
(-2.87493e-08 -9.17849e-07 -9.67603e-06)
(-2.01231e-07 -8.84898e-07 -9.74893e-06)
(-1.46191e-06 -7.75764e-07 -1.03425e-05)
(-1.29263e-05 -7.74243e-07 -6.28838e-06)
(1.27256e-05 -1.22843e-06 -6.34323e-06)
(1.42602e-06 -1.25142e-06 -1.03402e-05)
(1.9115e-07 -1.40765e-06 -9.75732e-06)
(2.65891e-08 -1.45186e-06 -9.68535e-06)
(5.1461e-09 -1.45584e-06 -9.6871e-06)
(2.72179e-09 -1.45779e-06 -9.68861e-06)
(2.19284e-09 -1.45491e-06 -9.68797e-06)
(1.40578e-09 -1.45476e-06 -9.68794e-06)
(1.03381e-09 -1.45521e-06 -9.68815e-06)
(4.89997e-10 -1.45468e-06 -9.68792e-06)
(1.92965e-10 -1.4566e-06 -9.6882e-06)
(3.75446e-10 -1.45778e-06 -9.68865e-06)
(3.12818e-10 -1.45632e-06 -9.68845e-06)
(2.42125e-10 -1.45589e-06 -9.68801e-06)
(2.03412e-10 -1.45497e-06 -9.68781e-06)
(-2.14636e-10 -1.45484e-06 -9.68779e-06)
(-1.54006e-10 -1.45491e-06 -9.68806e-06)
(3.9005e-11 -1.45499e-06 -9.68791e-06)
(-2.75395e-10 -1.45486e-06 -9.68779e-06)
(-7.38725e-10 -1.45517e-06 -9.68783e-06)
(-9.4997e-10 -1.45558e-06 -9.68867e-06)
(-7.66522e-10 -1.4583e-06 -9.68884e-06)
(-1.08709e-09 -1.4548e-06 -9.68787e-06)
(-2.02628e-09 -1.45475e-06 -9.68789e-06)
(-2.73211e-09 -1.45718e-06 -9.68847e-06)
(-5.42288e-09 -1.45468e-06 -9.68676e-06)
(-2.65385e-08 -1.45073e-06 -9.68518e-06)
(-1.90911e-07 -1.4073e-06 -9.75703e-06)
(-1.42625e-06 -1.25086e-06 -1.034e-05)
(-1.27247e-05 -1.23001e-06 -6.34338e-06)
(1.24213e-05 -1.94936e-06 -6.45353e-06)
(1.37799e-06 -2.01625e-06 -1.03624e-05)
(1.77778e-07 -2.23451e-06 -9.79659e-06)
(2.36341e-08 -2.29388e-06 -9.72662e-06)
(4.81465e-09 -2.29804e-06 -9.72812e-06)
(2.86876e-09 -2.29886e-06 -9.73006e-06)
(2.40372e-09 -2.29618e-06 -9.72899e-06)
(1.45395e-09 -2.2964e-06 -9.72909e-06)
(1.02924e-09 -2.2973e-06 -9.72978e-06)
(2.89609e-10 -2.2959e-06 -9.72866e-06)
(3.49133e-11 -2.29668e-06 -9.72888e-06)
(4.27652e-10 -2.29859e-06 -9.72866e-06)
(3.4519e-10 -2.29874e-06 -9.72907e-06)
(2.65477e-10 -2.29817e-06 -9.72943e-06)
(2.69054e-10 -2.29672e-06 -9.72879e-06)
(-1.34472e-10 -2.2965e-06 -9.72876e-06)
(-1.10002e-10 -2.29781e-06 -9.72988e-06)