/*--------------------------------*- C++ -*----------------------------------*\
| =========                 |                                                 |
| \\      /  F ield         | OpenFOAM: The Open Source CFD Toolbox           |
|  \\    /   O peration     | Version:  2106                                  |
|   \\  /    A nd           | Website:  www.openfoam.com                      |
|    \\/     M anipulation  |                                                 |
\*---------------------------------------------------------------------------*/
FoamFile
{
    version     2.0;
    format      ascii;
    arch        "LSB;label=32;scalar=64";
    class       volSymmTensorField;
    location    "453";
    object      epsilon;
}
// * * * * * * * * * * * * * * * * * * * * * * * * * * * * * * * * * * * * * //

dimensions      [0 0 0 0 0 0 0];

internalField   nonuniform List<symmTensor> 
9000
(
(-0.0855858 -0.000263825 0.0481685 -0.147125 0.0614129 -0.0253481)
(-0.0167746 0.000537663 0.00938895 -0.156479 0.0651321 -0.069742)
(-0.00192955 0.000335708 0.00257033 -0.166389 0.0691593 -0.0595085)
(-0.000321296 5.06251e-05 0.000455247 -0.168001 0.070048 -0.0573866)
(-5.5579e-05 -7.90164e-06 4.23419e-05 -0.168083 0.070075 -0.0573969)
(-4.16468e-06 -1.9981e-06 1.91176e-05 -0.167902 0.0698644 -0.0576675)
(-1.55177e-06 6.05165e-09 2.56361e-05 -0.168028 0.0700284 -0.0575508)
(-5.32003e-08 -5.90997e-06 7.15163e-06 -0.167896 0.0698663 -0.0576658)
(-9.14636e-07 6.45079e-06 3.05634e-05 -0.167895 0.0698631 -0.0576716)
(-6.56571e-06 6.68042e-06 -7.95446e-06 -0.168069 0.0700509 -0.0574527)
(2.31912e-06 -6.2382e-06 -4.98648e-05 -0.167952 0.0699348 -0.0575762)
(7.86258e-06 -5.61391e-07 3.828e-05 -0.16777 0.0697441 -0.0578156)
(-4.44911e-06 5.44463e-06 5.8159e-05 -0.168058 0.0700393 -0.0574803)
(-4.28852e-06 8.18922e-07 -3.03255e-05 -0.168076 0.0700485 -0.057467)
(3.47401e-06 8.51598e-07 1.64878e-06 -0.167964 0.069943 -0.0575613)
(-2.53985e-06 -1.18455e-06 3.07268e-05 -0.168072 0.070053 -0.057453)
(-2.12514e-06 3.3681e-07 -3.56828e-05 -0.168074 0.0700474 -0.0574724)
(3.21464e-08 7.55162e-07 -2.51232e-06 -0.167967 0.0699451 -0.0575528)
(-2.13343e-06 -6.653e-06 -2.39638e-05 -0.168061 0.0700445 -0.0574683)
(4.6138e-06 -6.38145e-06 -2.5701e-05 -0.167782 0.0697529 -0.057782)
(2.71056e-06 5.79123e-06 4.02239e-05 -0.167882 0.0698566 -0.0576966)
(-5.72179e-06 6.51549e-06 7.27908e-06 -0.168067 0.0700439 -0.0574702)
(-3.56706e-06 -5.90371e-06 -3.18135e-05 -0.16807 0.0700525 -0.0574541)
(-4.93796e-08 -8.37011e-07 -2.67667e-05 -0.167906 0.0698694 -0.0576562)
(-8.00463e-06 1.64106e-06 -2.52917e-05 -0.168057 0.0700373 -0.0574829)
(-5.41165e-05 1.90209e-06 -9.5581e-05 -0.167916 0.0698941 -0.0575945)
(-0.000314691 -4.57035e-05 -0.000443163 -0.167871 0.0699231 -0.0575299)
(-0.00193018 -0.000335498 -0.00253196 -0.166385 0.0691481 -0.0595335)
(-0.0167777 -0.000536717 -0.00938704 -0.156478 0.0651315 -0.0697412)
(-0.0855857 0.00026378 -0.0481701 -0.147125 0.061409 -0.0253516)
(-0.0724061 -1.15297e-05 0.0464856 -0.0980778 0.0681899 -0.128979)
(-0.0163987 0.000682332 0.00803043 -0.103199 0.0717538 -0.175002)
(-0.00180253 0.000432581 0.00154706 -0.109236 0.0762393 -0.171319)
(-0.000206687 7.09043e-05 0.000232874 -0.110403 0.0773969 -0.170636)
(-2.76073e-05 -6.29688e-06 3.45312e-05 -0.110426 0.0774302 -0.170681)
(-4.72836e-06 -3.20106e-06 3.23875e-05 -0.110207 0.0773642 -0.170695)
(-2.29074e-06 5.89308e-07 2.57832e-05 -0.110374 0.0773762 -0.170705)
(-1.58017e-06 -1.72214e-06 -3.38869e-06 -0.110183 0.0773704 -0.170691)
(-7.6033e-07 2.02884e-06 3.32873e-05 -0.110185 0.077363 -0.170697)
(-1.2119e-06 7.2975e-06 3.30309e-05 -0.1104 0.07739 -0.170702)
(-5.1577e-07 3.34066e-06 -1.25164e-05 -0.110303 0.0775665 -0.170671)
(1.18065e-07 -5.89106e-06 3.05699e-06 -0.110082 0.0775303 -0.17066)
(-9.67331e-07 -6.9863e-06 2.30839e-05 -0.110398 0.0773733 -0.170705)
(-7.31292e-07 6.25233e-06 1.56604e-06 -0.110376 0.077238 -0.170685)
(1.79356e-07 3.7408e-06 -1.61111e-06 -0.110315 0.0775786 -0.170674)
(-2.94982e-07 -9.00342e-06 -1.78928e-06 -0.110403 0.0773947 -0.170705)
(-1.91872e-07 5.1472e-06 -2.22348e-07 -0.110374 0.0772366 -0.170688)
(-1.38025e-07 3.8226e-06 -2.7785e-06 -0.110319 0.0775799 -0.17067)
(-7.28639e-07 -2.11055e-06 -2.37298e-05 -0.11039 0.0773806 -0.170705)
(-8.0445e-07 -1.9284e-06 -2.68956e-05 -0.110089 0.0775504 -0.17066)
(-8.18322e-07 -4.15779e-06 5.53187e-06 -0.110169 0.0773511 -0.170685)
(-9.78399e-07 1.93418e-06 5.78389e-06 -0.110409 0.0773795 -0.170709)
(-1.20242e-06 -1.10124e-06 -3.71221e-05 -0.110401 0.0773943 -0.170705)
(-1.72133e-06 -1.77461e-06 -2.2981e-05 -0.110199 0.077372 -0.17069)
(-5.40219e-06 3.41323e-06 -2.99574e-05 -0.110401 0.0773683 -0.170708)
(-2.79674e-05 9.89131e-06 -5.29976e-05 -0.110217 0.077414 -0.170666)
(-0.000206409 -7.35036e-05 -0.000212285 -0.110291 0.0775601 -0.170605)
(-0.00180269 -0.000437627 -0.00154859 -0.1092 0.0760791 -0.171317)
(-0.0163989 -0.000678998 -0.00803286 -0.103198 0.0717519 -0.175)
(-0.0724052 1.15486e-05 -0.0464867 -0.098082 0.0681803 -0.128978)
(-0.0763077 0.00117259 0.0467525 -0.0575575 0.0581725 -0.153394)
(-0.0165246 0.000871188 0.00787025 -0.0602188 0.0606532 -0.201964)
(-0.00180481 0.000519388 0.00137232 -0.0633676 0.0647234 -0.199927)
(-0.000186855 9.81526e-05 0.000172443 -0.0641037 0.0659001 -0.199626)
(-1.87748e-05 -8.42585e-07 5.81109e-05 -0.0641061 0.0659435 -0.199685)
(-4.91279e-06 -5.06382e-06 3.57064e-05 -0.064001 0.0660537 -0.199644)
(-2.21239e-06 2.29206e-06 2.49078e-05 -0.0640773 0.0658839 -0.199692)
(-2.39669e-06 4.47837e-06 2.12455e-05 -0.063995 0.0661529 -0.199663)
(-1.51573e-06 -2.88897e-06 6.8632e-06 -0.0640035 0.066145 -0.199667)
(1.17695e-06 -2.6873e-06 8.41887e-06 -0.0640799 0.065906 -0.199697)
(-7.86555e-07 3.25511e-06 1.73597e-05 -0.0640691 0.0658822 -0.199682)
(-3.38357e-06 -2.68915e-06 3.54079e-06 -0.063981 0.0661279 -0.199644)
(-2.42407e-07 -3.44503e-06 -2.05869e-05 -0.0640596 0.0657967 -0.199652)
(1.42808e-06 3.77937e-06 2.73125e-07 -0.0640116 0.0659096 -0.199678)
(-8.74277e-07 5.15426e-07 1.195e-05 -0.0640736 0.0658972 -0.199687)
(-4.74727e-08 -1.05204e-06 -1.67272e-05 -0.0640818 0.0659124 -0.199698)
(1.09613e-06 4.34025e-07 7.38204e-07 -0.0640111 0.065908 -0.199681)
(3.48736e-07 3.03229e-07 1.22986e-05 -0.0640757 0.0658965 -0.199687)
(-3.83037e-07 2.37692e-06 3.79007e-06 -0.0640737 0.0658966 -0.199696)
(-3.12265e-06 2.78835e-06 1.50192e-07 -0.0639846 0.0661327 -0.199648)
(-2.74664e-06 -5.53113e-06 -2.04789e-05 -0.0639856 0.0661468 -0.199653)
(1.04417e-06 -2.55468e-06 -2.2384e-05 -0.0640702 0.0658045 -0.199679)
(2.27555e-08 5.06398e-06 -1.23524e-05 -0.0640795 0.0659122 -0.199699)
(-2.53386e-06 -4.00846e-06 -2.10148e-05 -0.0640134 0.0661512 -0.199664)
(-4.2559e-06 4.02624e-06 -3.06792e-05 -0.0640738 0.0657932 -0.199673)
(-2.04754e-05 4.58036e-06 -4.81241e-05 -0.0640259 0.066192 -0.199647)
(-0.000189011 -0.000102404 -0.000191876 -0.0640807 0.0658629 -0.199608)
(-0.00180388 -0.000519209 -0.0013789 -0.0632947 0.0647037 -0.199914)
(-0.0165236 -0.000871743 -0.00785963 -0.060217 0.0606514 -0.20196)
(-0.0763051 -0.00117234 -0.0467528 -0.0575672 0.0581603 -0.153395)
(-0.0818812 0.00181537 0.0483753 -0.0351692 0.0409149 -0.154283)
(-0.0170839 0.000879977 0.0081427 -0.0372346 0.0422718 -0.205375)
(-0.00186671 0.000494802 0.00149187 -0.0391095 0.0456133 -0.20349)
(-0.000206738 0.000100388 0.000192903 -0.0396325 0.0464916 -0.203201)
(-2.05354e-05 -7.24829e-07 4.32476e-05 -0.0396419 0.0465381 -0.203266)
(-4.02754e-06 -6.66905e-06 3.62466e-05 -0.0395832 0.0464352 -0.203232)
(-2.34479e-06 1.36053e-06 3.34213e-05 -0.0396077 0.0464235 -0.20326)
(-2.27038e-06 1.54156e-06 1.81688e-05 -0.0396251 0.0465086 -0.203282)
(-1.09668e-06 4.88412e-07 1.1331e-05 -0.0396192 0.0464345 -0.203244)
(7.43984e-07 3.94465e-07 1.07641e-05 -0.0396174 0.0465084 -0.203276)
(-1.28766e-06 -1.94765e-06 1.35675e-05 -0.039613 0.046496 -0.203271)
(-2.94604e-06 7.96219e-07 -5.65782e-06 -0.0396173 0.0464867 -0.203248)
(3.10809e-07 5.93611e-06 -4.19779e-06 -0.039572 0.04651 -0.203255)
(9.77394e-07 9.71284e-07 1.0074e-05 -0.0395931 0.0466746 -0.20328)
(-1.01126e-06 -3.47474e-06 -8.34702e-07 -0.0396104 0.0465094 -0.203274)
(1.21476e-07 4.12242e-06 -3.51116e-06 -0.0396189 0.0465152 -0.203279)
(8.99538e-07 -6.3079e-07 2.68338e-07 -0.0395936 0.0466731 -0.203284)
(7.13906e-08 -4.2218e-06 5.07188e-07 -0.0396106 0.0465091 -0.203276)
(-6.53381e-07 -1.52912e-06 -4.02038e-07 -0.0396143 0.0464998 -0.203253)
(-2.76992e-06 -7.60499e-07 -4.66387e-06 -0.0396188 0.0464973 -0.203275)
(-2.23894e-06 1.1093e-06 -2.52891e-05 -0.0396204 0.0464986 -0.203256)
(9.04623e-07 1.54673e-06 -1.87796e-05 -0.0395823 0.046503 -0.203248)
(-4.28328e-07 -1.30496e-06 -6.15961e-06 -0.0396147 0.0465167 -0.20328)
(-2.41931e-06 -3.85806e-06 -3.03488e-05 -0.0396238 0.046438 -0.203267)
(-3.3831e-06 4.84338e-06 -3.11297e-05 -0.0395764 0.0464257 -0.203224)
(-2.17801e-05 1.4717e-07 -3.69541e-05 -0.0396496 0.0465372 -0.203262)
(-0.000208836 -9.77152e-05 -0.000194645 -0.0396188 0.0464662 -0.203191)
(-0.00186658 -0.000492458 -0.00149932 -0.0390855 0.0457556 -0.203464)
(-0.0170821 -0.000885374 -0.00814637 -0.0372333 0.0422705 -0.205372)
(-0.0818857 -0.00181463 -0.0483739 -0.0351601 0.0408385 -0.154268)
(-0.086062 0.00177836 0.0503758 -0.0220602 0.0263882 -0.152276)
(-0.0177686 0.000770471 0.00855626 -0.0235798 0.0267773 -0.205726)
(-0.00195019 0.000412325 0.00166294 -0.0249337 0.029395 -0.203764)
(-0.000234584 8.62566e-05 0.00021323 -0.0252887 0.0299639 -0.203433)
(-2.58438e-05 5.42141e-06 4.23184e-05 -0.0252899 0.0299541 -0.203493)
(-3.7101e-06 -4.66818e-06 2.48374e-05 -0.0252461 0.0300987 -0.203523)
(-1.98163e-06 -2.78826e-06 3.23014e-05 -0.0252469 0.0299222 -0.2035)
(-2.02743e-06 2.24073e-06 1.69874e-05 -0.0252847 0.0299974 -0.203524)
(-6.09081e-07 -1.40235e-07 1.25297e-05 -0.0252582 0.0299985 -0.203512)
(6.40565e-08 -2.18984e-06 2.01332e-05 -0.0252875 0.0299874 -0.203499)
(-1.46003e-06 -2.02689e-06 1.11566e-05 -0.0252697 0.0299271 -0.203501)
(-2.16132e-06 4.03627e-06 2.65778e-06 -0.0252852 0.029988 -0.203506)
(1.20064e-07 4.89851e-06 -3.2447e-06 -0.0252751 0.0300858 -0.203526)
(6.70139e-07 -1.26914e-06 1.8482e-06 -0.0253022 0.0300136 -0.203521)
(-9.21503e-07 -2.13429e-06 7.268e-07 -0.0252797 0.0299912 -0.203516)
(-3.10311e-08 2.56823e-06 -4.18343e-06 -0.0252901 0.0299927 -0.203517)
(8.52625e-07 -3.3477e-07 -4.01244e-07 -0.0253027 0.0300124 -0.203525)
(-1.90025e-07 -3.44499e-06 1.80432e-06 -0.0252791 0.029991 -0.203518)
(-9.75281e-07 -1.69418e-06 -2.29473e-06 -0.025287 0.0299863 -0.203488)
(-1.91713e-06 -1.03403e-07 -6.55484e-06 -0.0252839 0.0299905 -0.203519)
(-1.54703e-06 2.74476e-06 -1.35731e-05 -0.0252843 0.0299959 -0.203514)
(-7.40351e-08 1.83498e-06 -1.64244e-05 -0.0252624 0.030036 -0.203515)
(-1.04802e-06 -1.20063e-06 -2.45634e-05 -0.025281 0.0299952 -0.203521)
(-1.5942e-06 -9.96041e-07 -3.02343e-05 -0.0252655 0.0299937 -0.203514)
(-3.06648e-06 2.48597e-06 -2.10287e-05 -0.0252421 0.0300266 -0.203502)
(-2.68372e-05 -4.82153e-06 -3.75478e-05 -0.0253048 0.0300137 -0.203501)
(-0.000236193 -8.64213e-05 -0.000215372 -0.0252871 0.0299463 -0.203421)
(-0.00195029 -0.000409552 -0.00166754 -0.0249506 0.0294089 -0.203759)
(-0.0177657 -0.000771657 -0.00856896 -0.0235792 0.0267759 -0.205724)
(-0.0860691 -0.00177633 -0.0503638 -0.0220286 0.0263785 -0.152266)
(-0.0887466 0.00139816 0.052124 -0.0139522 0.0164695 -0.151249)
(-0.0183655 0.000608913 0.00895717 -0.0148841 0.0163803 -0.20654)
(-0.00203167 0.00031973 0.00181533 -0.0159411 0.0181875 -0.204478)
(-0.000259343 7.36725e-05 0.000236014 -0.0161942 0.0187161 -0.204176)
(-3.12108e-05 7.88506e-06 5.01438e-05 -0.0161829 0.0187569 -0.204245)
(-4.21873e-06 -2.4746e-06 3.09196e-05 -0.0162007 0.0188363 -0.204283)
(-1.6263e-06 -3.85714e-06 2.47185e-05 -0.0161557 0.0187626 -0.204262)
(-1.8111e-06 1.54726e-06 2.3882e-05 -0.0161959 0.0187506 -0.204269)
(-1.04615e-06 -1.63092e-06 1.24628e-05 -0.0161882 0.0188217 -0.204281)
(-2.11213e-07 -2.88076e-06 4.30887e-06 -0.0161883 0.0186996 -0.204255)
(-9.62715e-07 -1.5963e-06 9.9453e-06 -0.0161677 0.01874 -0.204258)
(-1.52314e-06 1.99463e-07 1.0104e-05 -0.0161902 0.0186975 -0.204231)
(5.94144e-08 4.80517e-06 -1.30721e-06 -0.016208 0.0187088 -0.204256)
(2.88897e-07 8.23198e-07 2.99417e-06 -0.0162083 0.0187642 -0.204267)
(-9.43985e-07 -2.53438e-06 9.10026e-07 -0.0161946 0.0187461 -0.204262)
(-7.3457e-08 1.86692e-06 -3.35376e-06 -0.0161923 0.0186996 -0.204253)
(5.40845e-07 8.33644e-07 -1.06358e-06 -0.0162083 0.0187627 -0.204268)
(-3.7788e-07 -4.23765e-06 3.21447e-07 -0.0161939 0.0187471 -0.204265)
(-8.14146e-07 -1.4861e-06 -3.38951e-06 -0.0161915 0.0186978 -0.204233)
(-1.58736e-06 1.34211e-06 -6.52802e-06 -0.0162007 0.0187454 -0.204263)
(-1.22426e-06 2.96673e-06 -2.07564e-05 -0.0162036 0.0187482 -0.204244)
(9.19548e-08 1.83868e-06 -1.52294e-05 -0.0161846 0.0187579 -0.204267)
(-1.50628e-06 -4.56215e-07 -7.57671e-06 -0.0161945 0.0187493 -0.20427)
(-1.8546e-06 6.80671e-07 -3.13559e-05 -0.0161854 0.0187743 -0.204248)
(-3.10333e-06 4.26191e-07 -2.86236e-05 -0.0161768 0.0187765 -0.204262)
(-3.2179e-05 -8.25963e-06 -3.78829e-05 -0.0162139 0.0187586 -0.204243)
(-0.000260754 -7.23374e-05 -0.000247429 -0.0161899 0.0186574 -0.204133)
(-0.00203128 -0.000316535 -0.00181777 -0.0159495 0.0181965 -0.204494)
(-0.0183624 -0.000607518 -0.00896003 -0.0148838 0.0163789 -0.206537)
(-0.0887458 -0.00139712 -0.0521111 -0.0139398 0.0165348 -0.151253)
(-0.0904038 0.000964711 0.053408 -0.00882206 0.0102402 -0.15097)
(-0.0188018 0.000447999 0.00928768 -0.00929998 0.0099925 -0.207532)
(-0.00209852 0.000237704 0.00193002 -0.0101014 0.0113141 -0.20547)
(-0.000278903 5.82446e-05 0.000276864 -0.0103139 0.0116684 -0.205149)
(-3.65222e-05 6.7812e-06 5.29981e-05 -0.0103214 0.0117622 -0.205216)
(-4.78532e-06 -1.0053e-06 2.18311e-05 -0.0103388 0.0117196 -0.205247)
(-1.25073e-06 -2.72581e-06 2.44228e-05 -0.0103029 0.0117589 -0.205233)
(-1.85432e-06 -1.35992e-06 2.34449e-05 -0.0103203 0.0116991 -0.205245)
(-1.01073e-06 -2.00348e-07 4.70071e-06 -0.0103299 0.0117078 -0.205248)
(-2.61682e-07 -2.07437e-07 1.12453e-05 -0.0102985 0.0116977 -0.205242)
(-1.30374e-06 -1.7273e-06 8.56017e-06 -0.0103085 0.0117518 -0.20525)
(-7.59813e-07 -1.71469e-06 -3.98925e-06 -0.0103038 0.0116955 -0.205232)
(6.31183e-07 2.84546e-06 8.31572e-06 -0.0103047 0.0116636 -0.205228)
(-4.26332e-07 5.14005e-07 1.02298e-05 -0.0103272 0.0117081 -0.205241)
(-1.07823e-06 -8.94486e-07 -6.71333e-06 -0.01032 0.0116964 -0.20524)
(2.43739e-07 1.41726e-06 -2.41063e-06 -0.0103016 0.0116969 -0.205236)
(-4.09183e-08 -3.49184e-07 6.02578e-06 -0.0103272 0.0117067 -0.205242)
(-6.69949e-07 -2.65131e-06 -9.22967e-06 -0.0103193 0.0116975 -0.205242)
(-2.02168e-07 -1.95352e-06 -3.89057e-06 -0.0103053 0.0116954 -0.205238)
(-1.03802e-06 -8.83575e-07 1.48467e-06 -0.0103158 0.0116536 -0.20523)
(-1.09189e-06 4.81424e-06 -1.2405e-05 -0.0103227 0.0116591 -0.205214)
(-6.07043e-07 2.95473e-06 -1.39348e-05 -0.0103204 0.0117654 -0.205255)
(-1.84796e-06 -1.35455e-06 -2.29953e-05 -0.0103194 0.0116997 -0.205247)
(-1.31694e-06 2.01738e-06 -3.11859e-05 -0.0103119 0.0117083 -0.205239)
(-3.69635e-06 -1.36308e-06 -2.00096e-05 -0.0103074 0.0117276 -0.205239)
(-3.70184e-05 -8.76873e-06 -4.80604e-05 -0.0103238 0.0116609 -0.205209)
(-0.00027976 -5.40737e-05 -0.000279666 -0.0103022 0.0116598 -0.205114)
(-0.00209844 -0.00023564 -0.00192631 -0.0101068 0.0113177 -0.205464)
(-0.0187997 -0.000447563 -0.00929087 -0.00930096 0.00999055 -0.207527)
(-0.0903989 -0.000965893 -0.0534026 -0.00882898 0.0102518 -0.150975)
(-0.0914224 0.000612815 0.0542571 -0.00556981 0.00639989 -0.150947)
(-0.019088 0.000311017 0.00955018 -0.0057706 0.00614855 -0.208324)
(-0.00214872 0.000172139 0.00201761 -0.00638046 0.00711444 -0.206272)
(-0.000293699 4.16838e-05 0.000288912 -0.00653893 0.00732531 -0.205944)
(-3.99791e-05 5.42663e-06 5.52521e-05 -0.00656048 0.00736311 -0.206009)
(-5.37794e-06 1.03681e-06 2.7866e-05 -0.00655925 0.00736541 -0.206043)
(-1.42564e-06 -1.98917e-06 2.26385e-05 -0.00655368 0.00741089 -0.206052)
(-1.51666e-06 -2.07236e-06 1.67751e-05 -0.00654717 0.0073515 -0.206045)
(-8.8245e-07 1.60302e-06 1.19129e-05 -0.00655303 0.0073582 -0.206045)
(-6.40793e-07 -2.52023e-07 1.05085e-05 -0.0065398 0.00740143 -0.20605)
(-1.29856e-06 -2.19076e-06 7.21867e-06 -0.00655099 0.00735627 -0.206043)
(-3.97301e-07 1.40371e-06 -3.6851e-06 -0.00653535 0.00736149 -0.206039)
(6.73104e-07 1.1406e-06 2.70847e-06 -0.00652873 0.00740523 -0.206041)
(-4.41539e-07 -2.36209e-06 9.92135e-06 -0.00655065 0.00735709 -0.20604)
(-9.67241e-07 9.36442e-07 1.18417e-07 -0.00654805 0.00734909 -0.206041)
(-6.5798e-08 1.12714e-06 -1.68161e-06 -0.00654105 0.00739991 -0.206047)
(-2.56894e-07 -1.91338e-06 -1.24778e-06 -0.00655063 0.00735569 -0.206042)
(-7.21712e-07 -1.23428e-06 -3.1723e-06 -0.00654668 0.00735063 -0.206041)
(-4.51626e-07 -4.6846e-07 -1.13422e-05 -0.00654036 0.00736076 -0.20604)
(-3.84407e-07 -1.27391e-06 -1.31795e-05 -0.00653097 0.00734827 -0.206034)
(-2.95359e-07 2.47156e-06 -3.95569e-06 -0.0065274 0.00731376 -0.20603)
(-9.36337e-07 2.28587e-06 -5.27134e-06 -0.00655813 0.00736385 -0.206045)
(-2.17498e-06 8.74536e-07 -1.62247e-05 -0.00654668 0.00735277 -0.206046)
(-1.66265e-06 3.6722e-06 -3.04716e-05 -0.00654708 0.00740851 -0.206051)
(-4.37062e-06 -1.75493e-06 -3.37282e-05 -0.00654295 0.00741678 -0.206043)
(-3.98106e-05 -9.20506e-06 -4.46369e-05 -0.00653511 0.00735288 -0.206011)
(-0.000294298 -4.01491e-05 -0.000282443 -0.00653388 0.00732853 -0.205934)
(-0.00214909 -0.000170757 -0.0020198 -0.00638475 0.0071151 -0.206263)
(-0.0190871 -0.000310451 -0.00955447 -0.00577279 0.00614764 -0.2083)
(-0.0914189 -0.000614125 -0.0542545 -0.00557407 0.00640885 -0.150952)
(-0.0920495 0.000369711 0.0547832 -0.00351665 0.00401499 -0.150972)
(-0.0192634 0.000204554 0.00972715 -0.00357562 0.00381533 -0.208848)
(-0.00218286 0.000122023 0.00208259 -0.004029 0.00444169 -0.206797)
(-0.000304734 3.07037e-05 0.000303225 -0.00414044 0.00462376 -0.206481)
(-4.25416e-05 4.2818e-06 5.60454e-05 -0.00415808 0.00465206 -0.206563)
(-5.86068e-06 8.81116e-07 2.78341e-05 -0.00415663 0.00465304 -0.206582)
(-1.55415e-06 -1.31388e-06 2.16163e-05 -0.00416188 0.00465733 -0.206587)
(-1.27158e-06 -1.23591e-06 1.66361e-05 -0.00414902 0.00464526 -0.206586)
(-8.48381e-07 8.89921e-07 1.24761e-05 -0.00415231 0.00464858 -0.206584)
(-1.02913e-06 -1.89405e-07 1.03562e-05 -0.00415579 0.00465299 -0.206571)
(-1.01081e-06 -5.47214e-07 -7.63908e-07 -0.00415153 0.00465009 -0.206582)
(1.3342e-07 2.33762e-06 3.26447e-06 -0.00414014 0.00465139 -0.206577)
(1.46842e-07 -8.4915e-09 1.02446e-05 -0.00415237 0.00469794 -0.206586)
(-6.28711e-07 -3.37961e-06 2.49817e-06 -0.00415091 0.00464919 -0.206581)
(-5.75367e-07 3.33596e-07 1.88889e-07 -0.00415316 0.00464332 -0.206582)
(-2.35378e-07 1.13478e-06 -1.14809e-06 -0.00415539 0.00465195 -0.206571)
(-6.06476e-07 -1.17466e-06 -1.74721e-06 -0.00415049 0.00464801 -0.206584)
(-4.90778e-07 -1.02255e-06 -1.01618e-05 -0.00414953 0.00464434 -0.206582)
(-1.03256e-07 1.00815e-06 -4.63215e-06 -0.0041374 0.00461616 -0.206558)
(-4.44432e-07 1.75327e-06 -6.9247e-06 -0.00414746 0.00468711 -0.206584)
(-2.36941e-07 5.41354e-07 -9.52604e-06 -0.00413048 0.00469097 -0.206584)
(-9.31166e-07 -7.45068e-07 -4.30401e-06 -0.00415565 0.00465412 -0.206583)
(-1.98041e-06 5.84889e-07 -1.63313e-05 -0.00414881 0.0046468 -0.206586)
(-1.62553e-06 3.66976e-06 -2.25772e-05 -0.00415905 0.00465568 -0.206586)
(-5.62981e-06 2.19265e-07 -2.70581e-05 -0.00416166 0.00470453 -0.206584)
(-4.26112e-05 -8.42907e-06 -6.15475e-05 -0.00414688 0.00468958 -0.206562)
(-0.000304478 -3.17125e-05 -0.000303396 -0.00412999 0.00458686 -0.206465)
(-0.00218306 -0.000120826 -0.00207684 -0.00403185 0.00444039 -0.206789)
(-0.0192634 -0.000203608 -0.00972927 -0.00357638 0.00381303 -0.208844)
(-0.0920481 -0.000370549 -0.0547826 -0.00351724 0.00402154 -0.150975)
(-0.0924349 0.000216657 0.0550965 -0.00222696 0.00251763 -0.150996)
(-0.0193663 0.000130116 0.00984263 -0.00222357 0.00237692 -0.20917)
(-0.00220464 8.45293e-05 0.00212921 -0.00254217 0.00279245 -0.207128)
(-0.000312703 2.19829e-05 0.000313813 -0.00262721 0.00292091 -0.206818)
(-4.44498e-05 3.22212e-06 5.84696e-05 -0.00264513 0.00294248 -0.206892)
(-6.26855e-06 1.00609e-06 2.80725e-05 -0.0026405 0.00294191 -0.206922)
(-1.68371e-06 -7.82615e-07 2.09544e-05 -0.00264312 0.00294513 -0.206925)
(-1.16242e-06 -8.24029e-07 1.60703e-05 -0.00263544 0.00293782 -0.206927)
(-8.16569e-07 2.30404e-07 1.24499e-05 -0.00263711 0.00293929 -0.206925)
(-9.17962e-07 -1.42039e-07 1.01509e-05 -0.00263999 0.00294401 -0.206913)
(-8.29424e-07 1.19069e-06 5.84928e-06 -0.00263739 0.00294108 -0.206922)
(-9.48948e-08 1.41629e-06 3.81104e-06 -0.0026371 0.00298282 -0.206924)
(-2.28944e-07 -1.23478e-06 3.62512e-06 -0.00264637 0.00294921 -0.206921)
(-5.3514e-07 -3.03664e-06 1.62283e-06 -0.00263653 0.00294089 -0.206922)
(-2.15164e-07 2.88312e-08 -5.53716e-08 -0.00263256 0.00290141 -0.206917)
(-2.70535e-07 1.7176e-06 -7.21328e-07 -0.00263838 0.00294266 -0.206924)
(-8.04247e-07 -8.89099e-07 -1.93797e-06 -0.00263581 0.00294027 -0.206924)
(-4.04155e-07 1.27048e-06 -1.0622e-05 -0.00263896 0.00293721 -0.206923)
(2.0667e-07 -1.09079e-09 -4.41236e-06 -0.00262115 0.00298314 -0.206921)
(-3.60341e-07 2.43986e-07 2.67991e-07 -0.00263788 0.00290604 -0.206915)
(-6.11858e-07 1.31992e-06 -8.79318e-06 -0.00264184 0.00298444 -0.206927)
(-1.00829e-06 -1.46754e-06 -1.07959e-05 -0.00264042 0.00294308 -0.206922)
(-1.62296e-06 4.06643e-07 -1.61208e-05 -0.0026354 0.00293931 -0.206926)
(-1.65004e-06 2.08565e-06 -2.15323e-05 -0.00264207 0.00294475 -0.206924)
(-6.37651e-06 -1.12457e-07 -2.73413e-05 -0.0026518 0.00295099 -0.206919)
(-4.46667e-05 -4.21388e-06 -6.41005e-05 -0.00264359 0.00294179 -0.206898)
(-0.000312132 -2.31305e-05 -0.000314114 -0.0026198 0.00295982 -0.20681)
(-0.00220469 -8.53338e-05 -0.0021229 -0.00254509 0.00278978 -0.207121)
(-0.0193669 -0.000128787 -0.0098444 -0.00222272 0.00237474 -0.209168)
(-0.0924352 -0.000217011 -0.0550975 -0.00222309 0.00252245 -0.150998)
(-0.0926747 0.00012546 0.0552787 -0.00140806 0.00153139 -0.151008)
(-0.0194253 8.15053e-05 0.00991451 -0.00139491 0.0014775 -0.209363)
(-0.00221805 5.71183e-05 0.00216182 -0.00161391 0.00174661 -0.207332)
(-0.000318347 1.46931e-05 0.00032133 -0.00167759 0.00183602 -0.207027)
(-4.5704e-05 2.2659e-06 5.84545e-05 -0.00168597 0.00181505 -0.207109)
(-6.52349e-06 1.68478e-06 2.85833e-05 -0.00168902 0.00185038 -0.207132)
(-1.88068e-06 -3.67665e-07 2.05407e-05 -0.00168969 0.00185198 -0.207135)
(-1.1455e-06 -5.33332e-07 1.55774e-05 -0.00168528 0.00184865 -0.207137)
(-7.9007e-07 3.44888e-08 1.19308e-05 -0.0016859 0.00184963 -0.207137)
(-7.91713e-07 -1.77538e-07 9.77505e-06 -0.00168659 0.00185217 -0.207137)
(-6.9185e-07 3.68942e-07 6.35158e-06 -0.00168751 0.00185039 -0.207132)
(-2.19333e-07 9.28408e-07 4.43827e-06 -0.00169795 0.00185449 -0.207131)
(-6.1436e-07 -2.77858e-07 3.57685e-06 -0.00169205 0.00185609 -0.207129)
(-4.95515e-07 -1.2565e-06 -5.90132e-06 -0.0016859 0.00185122 -0.207133)
(2.94839e-07 1.14418e-07 -6.24013e-08 -0.00167411 0.00184812 -0.207128)
(-3.55088e-07 5.71056e-07 6.35812e-06 -0.00168602 0.00185312 -0.207134)
(-8.22793e-07 -1.48413e-06 -2.20347e-06 -0.00168493 0.00185131 -0.207135)
(-3.8293e-07 2.03005e-06 -3.89806e-06 -0.00168176 0.00181445 -0.20713)
(-1.52486e-07 1.4155e-06 -1.08437e-05 -0.00168783 0.00189495 -0.207136)
(-8.80811e-08 -2.05591e-06 -5.99562e-06 -0.00167735 0.0018514 -0.207126)
(-4.80442e-07 3.37528e-08 -1.73479e-06 -0.00169131 0.0018229 -0.207128)
(-1.17365e-06 6.03621e-08 -1.11164e-05 -0.00169033 0.00185062 -0.207131)
(-1.46544e-06 4.26032e-07 -1.59051e-05 -0.00168529 0.00185003 -0.207136)
(-1.71271e-06 1.11266e-06 -2.07683e-05 -0.0016895 0.0018523 -0.207134)
(-6.71286e-06 -3.70214e-07 -2.7443e-05 -0.00169483 0.00185577 -0.207129)
(-4.61675e-05 -3.08041e-06 -5.91734e-05 -0.00169197 0.00185009 -0.207107)
(-0.000317901 -1.67416e-05 -0.000322501 -0.00168374 0.00184049 -0.207017)
(-0.00221781 -5.76125e-05 -0.00216219 -0.00161897 0.00174345 -0.207326)
(-0.0194262 -7.89648e-05 -0.00991638 -0.00139412 0.00147588 -0.209363)
(-0.0926723 -0.000124925 -0.0552813 -0.00141243 0.00157276 -0.151017)
(-0.092821 7.20086e-05 0.0553787 -0.00089571 0.000964809 -0.151019)
(-0.0194588 4.82902e-05 0.00996772 -0.000890424 0.000906181 -0.20948)
(-0.00222624 3.74022e-05 0.0021839 -0.00104004 0.00107654 -0.207457)
(-0.000322165 1.09274e-05 0.000320323 -0.00108725 0.00113702 -0.207155)
(-4.63936e-05 1.46074e-06 5.91205e-05 -0.00108612 0.00114633 -0.207238)
(-6.70854e-06 4.25319e-07 3.54246e-05 -0.00109797 0.00114534 -0.207263)
(-2.14216e-06 -1.39267e-08 2.03622e-05 -0.00109667 0.00114683 -0.207266)
(-1.14432e-06 -2.98446e-07 1.52674e-05 -0.00109422 0.00114553 -0.207268)
(-7.7492e-07 1.33645e-07 1.17966e-05 -0.00109442 0.0011465 -0.207268)
(-7.84431e-07 -3.03532e-07 9.59206e-06 -0.00109508 0.00114901 -0.207267)
(-5.81354e-07 -8.35057e-07 6.55833e-06 -0.00109726 0.00114569 -0.207263)
(-1.73535e-07 7.52051e-07 4.84607e-06 -0.00109619 0.00111531 -0.207257)
(-6.2911e-07 7.99516e-07 3.43692e-06 -0.00109788 0.00114959 -0.20726)
(-5.11983e-07 1.14452e-07 3.35982e-07 -0.00109487 0.00114768 -0.207263)
(1.43991e-07 1.42334e-07 1.83626e-07 -0.00109622 0.00118146 -0.207263)
(-5.62068e-07 -3.58826e-07 7.16071e-08 -0.0010961 0.00114919 -0.207262)
(-6.21002e-07 -2.11787e-07 -9.27136e-06 -0.00109427 0.00114846 -0.207264)
(1.33744e-07 1.10163e-06 -3.52826e-06 -0.00108159 0.00114703 -0.20726)
(-4.65823e-07 1.02196e-06 2.62561e-06 -0.00110301 0.00115509 -0.207263)
(-5.57709e-07 -4.58369e-07 -1.26651e-05 -0.00109758 0.00118338 -0.207261)
(-1.67712e-07 -1.34899e-06 -8.32425e-06 -0.00108664 0.00115243 -0.207257)
(-9.7639e-07 -6.70165e-07 -4.68763e-06 -0.00110107 0.00114551 -0.207262)
(-1.50261e-06 6.07657e-07 -1.55991e-05 -0.00109417 0.00114705 -0.207266)
(-1.8146e-06 5.19392e-07 -2.04292e-05 -0.0010972 0.00114711 -0.207264)
(-7.156e-06 -6.78066e-07 -2.76839e-05 -0.00109953 0.00114847 -0.207259)
(-4.72993e-05 -2.53214e-06 -6.68631e-05 -0.00110159 0.0011444 -0.207237)
(-0.000321424 -1.20343e-05 -0.000328571 -0.00108165 0.00110607 -0.207139)
(-0.00222535 -3.74656e-05 -0.00217789 -0.00103688 0.00103991 -0.207448)
(-0.0194598 -4.64918e-05 -0.00995962 -0.00089022 0.000905769 -0.209479)
(-0.0928165 -7.09135e-05 -0.0553867 -0.000908885 0.000964466 -0.15103)
(-0.092902 4.03447e-05 0.0554458 -0.000606449 0.000609323 -0.151036)
(-0.0194782 2.68837e-05 0.00998308 -0.000589312 0.000534029 -0.209548)
(-0.00223028 2.32307e-05 0.00219828 -0.000693536 0.000637484 -0.207533)
(-0.000324665 7.81364e-06 0.000331175 -0.0007301 0.000676327 -0.207232)
(-4.74103e-05 4.02506e-07 6.04055e-05 -0.00074128 0.000715448 -0.20731)
(-6.78133e-06 -3.19096e-07 2.87337e-05 -0.000741066 0.000679983 -0.207342)
(-2.06478e-06 4.36873e-07 2.0413e-05 -0.000736517 0.000681729 -0.207346)
(-1.16299e-06 -1.33379e-07 1.50903e-05 -0.000735192 0.000681211 -0.207347)
(-7.90823e-07 1.50062e-08 1.18866e-05 -0.000735376 0.000682191 -0.207347)
(-9.24513e-07 -6.39417e-07 9.5071e-06 -0.000737148 0.000683923 -0.207337)
(-4.56721e-07 2.18692e-07 -1.93287e-07 -0.000740503 0.000680436 -0.207343)
(1.16021e-07 8.98395e-07 5.24188e-06 -0.000725936 0.000684046 -0.207335)
(-7.4826e-07 -1.75906e-07 1.0035e-05 -0.000736966 0.000684028 -0.207341)
(-6.44476e-07 -1.07666e-06 1.87776e-07 -0.000735832 0.000682899 -0.207342)
(2.2379e-07 -1.08743e-07 4.2937e-07 -0.000738697 0.000649065 -0.207338)
(-4.23829e-07 9.17352e-07 2.82419e-07 -0.000738586 0.000683236 -0.207332)
(-5.92233e-07 1.34892e-06 -2.7304e-06 -0.000736253 0.000684036 -0.207334)
(-1.43233e-07 7.22181e-07 -3.17434e-06 -0.000732706 0.000718727 -0.207343)
(-3.92522e-07 -1.60614e-06 -3.92409e-06 -0.000741074 0.000687777 -0.20734)
(-5.12408e-07 9.90826e-07 -6.06244e-06 -0.000738811 0.000650547 -0.207337)
(-5.03509e-07 -8.18457e-07 -8.52775e-06 -0.000735599 0.000722004 -0.207339)
(-8.2091e-07 -1.65714e-06 -1.15564e-05 -0.000734375 0.000646771 -0.207339)
(-1.27371e-06 1.15385e-06 -1.54095e-05 -0.000735717 0.00068294 -0.207344)
(-1.97479e-06 1.70157e-07 -2.03942e-05 -0.000737838 0.000681286 -0.207344)
(-7.32224e-06 -1.27229e-06 -2.79191e-05 -0.000737934 0.000682255 -0.20734)
(-4.80774e-05 1.41134e-07 -6.74469e-05 -0.000734209 0.000645635 -0.207313)
(-0.000323991 -5.86181e-06 -0.000339749 -0.000719252 0.000713587 -0.207221)
(-0.00222942 -2.50422e-05 -0.00219253 -0.000680485 0.000636363 -0.207524)
(-0.0194783 -2.74915e-05 -0.00997772 -0.000590336 0.000533568 -0.209546)
(-0.0929018 -3.98488e-05 -0.0554421 -0.000604069 0.000571226 -0.151041)
(-0.0929504 2.07895e-05 0.0554793 -0.000435379 0.000262656 -0.15104)
(-0.0194885 1.53185e-05 0.00999744 -0.000419931 0.000279413 -0.209589)
(-0.00223267 1.25123e-05 0.00220697 -0.000497748 0.000334769 -0.207576)
(-0.000326262 2.72411e-06 0.000334931 -0.000527968 0.000356043 -0.207267)
(-4.78081e-05 -6.19916e-07 5.92897e-05 -0.000539109 0.00032379 -0.207364)
(-6.66034e-06 1.40194e-06 2.91781e-05 -0.000529117 0.000323967 -0.207386)
(-2.15104e-06 1.21782e-06 2.05896e-05 -0.000532081 0.000359099 -0.207391)
(-1.27095e-06 -2.76826e-08 1.49961e-05 -0.000531341 0.000358873 -0.207393)
(-8.74827e-07 -1.36638e-07 1.15752e-05 -0.000531696 0.000359785 -0.207392)
(-6.93529e-07 -1.32218e-06 8.92261e-06 -0.000532486 0.000359217 -0.207392)
(-2.48684e-07 1.37644e-06 6.86535e-06 -0.000528996 0.000324545 -0.207386)
(-2.48823e-07 1.46021e-06 5.67468e-06 -0.000531262 0.000395803 -0.207384)
(-1.03718e-06 -1.19934e-06 3.24677e-06 -0.000533604 0.000361458 -0.207386)
(-5.16397e-07 -2.51206e-07 -6.68634e-06 -0.00053186 0.000360163 -0.207388)
(5.58565e-07 -4.35167e-07 4.26141e-08 -0.000524146 0.000359953 -0.207382)
(-2.60728e-07 7.15782e-08 6.97279e-06 -0.000534823 0.000357414 -0.207387)
(-6.72012e-07 1.00723e-06 -2.11437e-06 -0.000532679 0.000360272 -0.207389)
(-4.50564e-07 4.00183e-07 -2.56534e-06 -0.000537561 0.000362273 -0.207388)
(-4.00886e-07 -1.57847e-07 -1.04923e-05 -0.000535803 0.000361718 -0.207377)
(-3.86881e-07 4.87527e-07 -5.87048e-06 -0.000522886 0.000361787 -0.207382)