/*--------------------------------*- C++ -*----------------------------------*\
| =========                 |                                                 |
| \\      /  F ield         | OpenFOAM: The Open Source CFD Toolbox           |
|  \\    /   O peration     | Version:  2106                                  |
|   \\  /    A nd           | Website:  www.openfoam.com                      |
|    \\/     M anipulation  |                                                 |
\*---------------------------------------------------------------------------*/
FoamFile
{
    version     2.0;
    format      ascii;
    arch        "LSB;label=32;scalar=64";
    class       volSymmTensorField;
    location    "453";
    object      sigma;
}
// * * * * * * * * * * * * * * * * * * * * * * * * * * * * * * * * * * * * * //

dimensions      [1 -1 -2 0 0 0 0];

internalField   nonuniform List<symmTensor> 
9000
(
(5.3938e+07 -136098 2.48483e+07 2.21925e+07 3.16806e+07 8.50124e+07)
(9.63424e+07 277360 4.84341e+06 2.42743e+07 3.35992e+07 6.90185e+07)
(1.10956e+08 173179 1.32594e+06 2.61174e+07 3.56767e+07 8.12529e+07)
(1.12757e+08 26115.6 234845 2.62572e+07 3.61352e+07 8.33188e+07)
(1.12973e+08 -4076.16 21842.6 2.6294e+07 3.61491e+07 8.33929e+07)
(1.12982e+08 -1030.75 9862.04 2.63695e+07 3.60404e+07 8.32356e+07)
(1.12981e+08 3.12182 13224.7 2.63023e+07 3.6125e+07 8.32932e+07)
(1.1299e+08 -3048.73 3689.26 2.63784e+07 3.60414e+07 8.32421e+07)
(1.12987e+08 3327.72 15766.5 2.63768e+07 3.60398e+07 8.32367e+07)
(1.13002e+08 3446.18 -4103.41 2.63046e+07 3.61366e+07 8.33674e+07)
(1.13007e+08 -3218.05 -25723.4 2.63661e+07 3.60767e+07 8.33048e+07)
(1.12986e+08 -289.601 19747.2 2.64357e+07 3.59784e+07 8.31573e+07)
(1.12996e+08 2808.68 30002.1 2.63035e+07 3.61307e+07 8.33464e+07)
(1.12994e+08 422.451 -15643.8 2.62922e+07 3.61354e+07 8.33513e+07)
(1.1301e+08 439.308 850.546 2.63622e+07 3.6081e+07 8.33146e+07)
(1.13004e+08 -611.065 15850.8 2.63033e+07 3.61377e+07 8.33676e+07)
(1.12995e+08 173.748 -18407.5 2.62926e+07 3.61348e+07 8.33479e+07)
(1.13009e+08 389.56 -1296.01 2.63609e+07 3.60821e+07 8.33196e+07)
(1.13003e+08 -3432.04 -12362 2.63077e+07 3.61334e+07 8.33581e+07)
(1.12993e+08 -3291.95 -13258.2 2.64388e+07 3.59829e+07 8.31835e+07)
(1.12985e+08 2987.48 20750 2.63794e+07 3.60364e+07 8.32199e+07)
(1.12996e+08 3361.1 3755.01 2.62993e+07 3.6133e+07 8.33518e+07)
(1.13003e+08 -3045.5 -16411.4 2.63039e+07 3.61375e+07 8.33668e+07)
(1.1299e+08 -431.783 -13807.9 2.63733e+07 3.6043e+07 8.3247e+07)
(1.12992e+08 846.562 -13047 2.63015e+07 3.61296e+07 8.33428e+07)
(1.1296e+08 981.216 -49306.7 2.63665e+07 3.60558e+07 8.32775e+07)
(1.12757e+08 -23576.7 -228611 2.63213e+07 3.60707e+07 8.3242e+07)
(1.10946e+08 -173071 -1.30614e+06 2.61097e+07 3.56709e+07 8.12302e+07)
(9.63401e+07 -276872 -4.84243e+06 2.42741e+07 3.35989e+07 6.90182e+07)
(5.39366e+07 136074 -2.48492e+07 2.21909e+07 3.16786e+07 8.50091e+07)
(4.17514e+07 -5947.75 2.39802e+07 2.85083e+07 3.51766e+07 1.25677e+07)
(7.2873e+07 351990 4.1426e+06 2.80958e+07 3.70151e+07 -8.94473e+06)
(8.60167e+07 223152 798068 3.05957e+07 3.9329e+07 -1.43044e+06)
(8.73499e+07 36576.9 120131 3.0504e+07 3.99262e+07 -568149)
(8.7493e+07 -3248.33 17813.4 3.05428e+07 3.99434e+07 -540853)
(8.76095e+07 -1651.31 16707.5 3.07604e+07 3.99093e+07 -443277)
(8.75302e+07 304.002 13300.6 3.05934e+07 3.99155e+07 -529114)
(8.76248e+07 -888.387 -1748.1 3.07862e+07 3.99125e+07 -427720)
(8.76222e+07 1046.6 17171.7 3.07824e+07 3.99087e+07 -433721)
(8.75212e+07 3764.51 17039.4 3.05708e+07 3.99226e+07 -536726)
(8.75806e+07 1723.32 -6456.77 3.06798e+07 4.00137e+07 -461849)
(8.76871e+07 -3038.98 1576.99 3.08997e+07 3.9995e+07 -350307)
(8.75205e+07 -3603.97 11908.1 3.05707e+07 3.9914e+07 -539438)
(8.75402e+07 3225.34 807.861 3.06018e+07 3.98442e+07 -509512)
(8.75741e+07 1929.74 -831.113 3.06669e+07 4.00199e+07 -470474)
(8.75192e+07 -4644.53 -923.023 3.05665e+07 3.9925e+07 -540948)
(8.75404e+07 2655.25 -114.701 3.06026e+07 3.98435e+07 -510820)
(8.75741e+07 1971.94 -1433.32 3.06648e+07 4.00206e+07 -467950)
(8.75248e+07 -1088.76 -12241.3 3.05793e+07 3.99177e+07 -535289)
(8.76833e+07 -994.788 -13874.4 3.08928e+07 4.00054e+07 -353250)
(8.76348e+07 -2144.85 2853.68 3.08032e+07 3.99026e+07 -415020)
(8.75137e+07 997.771 2983.69 3.05582e+07 3.99172e+07 -548250)
(8.75194e+07 -568.086 -19149.9 3.05684e+07 3.99249e+07 -540087)
(8.76178e+07 -915.457 -11855 3.07709e+07 3.99133e+07 -434072)
(8.75138e+07 1760.76 -15453.9 3.05648e+07 3.99114e+07 -545058)
(8.75954e+07 5102.56 -27339.5 3.0753e+07 3.9935e+07 -430404)
(8.74154e+07 -37917.8 -109510 3.06269e+07 4.00104e+07 -487048)
(8.60337e+07 -225756 -798860 3.06313e+07 3.92464e+07 -1.41234e+06)
(7.28743e+07 -350270 -4.14385e+06 2.80978e+07 3.70142e+07 -8.94217e+06)
(4.17505e+07 5957.51 -2.39808e+07 2.85048e+07 3.51717e+07 1.25666e+07)
(4.53343e+07 604897 2.41179e+07 5.50069e+07 3.00091e+07 5.56831e+06)
(8.00959e+07 449413 4.05997e+06 5.75557e+07 3.12887e+07 -1.55652e+07)
(9.39291e+07 267933 707931 6.21712e+07 3.33884e+07 -8.2746e+06)
(9.5306e+07 50633.3 88957.1 6.23337e+07 3.39954e+07 -7.57714e+06)
(9.54415e+07 -434.658 29977.3 6.23813e+07 3.40178e+07 -7.55892e+06)
(9.5522e+07 -2612.24 18419.6 6.25088e+07 3.40747e+07 -7.4645e+06)
(9.54676e+07 1182.39 12849 6.24136e+07 3.3987e+07 -7.5451e+06)
(9.55187e+07 2310.22 10959.8 6.25073e+07 3.41258e+07 -7.47861e+06)
(9.55139e+07 -1490.31 3540.47 6.24976e+07 3.41218e+07 -7.48591e+06)
(9.54675e+07 -1386.28 4342.98 6.24104e+07 3.39985e+07 -7.54944e+06)
(9.54776e+07 1679.19 8955.25 6.24271e+07 3.39862e+07 -7.53048e+06)
(9.55329e+07 -1387.23 1826.56 6.25292e+07 3.41129e+07 -7.45413e+06)
(9.5496e+07 -1777.16 -10620 6.24502e+07 3.39421e+07 -7.49705e+06)
(9.55078e+07 1949.64 140.895 6.24858e+07 3.40003e+07 -7.49943e+06)
(9.54732e+07 265.889 6164.58 6.24205e+07 3.39939e+07 -7.53721e+06)
(9.5465e+07 -542.71 -8628.96 6.24077e+07 3.40017e+07 -7.55173e+06)
(9.55063e+07 223.898 380.812 6.24847e+07 3.39995e+07 -7.50247e+06)
(9.54735e+07 156.424 6344.4 6.24191e+07 3.39936e+07 -7.53755e+06)
(9.54694e+07 1226.17 1955.16 6.24164e+07 3.39936e+07 -7.54608e+06)
(9.55294e+07 1438.41 77.4783 6.25237e+07 3.41154e+07 -7.4602e+06)
(9.55273e+07 -2853.3 -10564.3 6.2521e+07 3.41227e+07 -7.46468e+06)
(9.548e+07 -1317.86 -11547.1 6.2428e+07 3.39461e+07 -7.52778e+06)
(9.54656e+07 2612.32 -6372.14 6.24094e+07 3.40017e+07 -7.55182e+06)
(9.55096e+07 -2067.81 -10840.8 6.24888e+07 3.41249e+07 -7.48835e+06)
(9.5476e+07 2076.99 -15826.2 6.24249e+07 3.39402e+07 -7.52589e+06)
(9.5494e+07 2362.84 -24825.4 6.2476e+07 3.4146e+07 -7.48614e+06)
(9.53226e+07 -52826.2 -98981.8 6.23633e+07 3.39762e+07 -7.5503e+06)
(9.39692e+07 -267841 -711323 6.22484e+07 3.33782e+07 -8.22855e+06)
(8.00993e+07 -449700 -4.05449e+06 5.75595e+07 3.12878e+07 -1.55605e+07)
(4.53321e+07 -604768 -2.4118e+07 5.49984e+07 3.00028e+07 5.56446e+06)
(4.9762e+07 936482 2.4955e+07 7.3859e+07 2.11065e+07 1.24126e+07)
(8.85258e+07 453948 4.20052e+06 7.81308e+07 2.18064e+07 -8.60668e+06)
(1.03358e+08 255250 769602 8.41459e+07 2.35302e+07 -652080)
(1.04869e+08 51786.3 99511.2 8.45303e+07 2.39833e+07 151490)
(1.05016e+08 -373.912 22309.8 8.45766e+07 2.40073e+07 169023)
(1.05074e+08 -3440.32 18698.3 8.46568e+07 2.39542e+07 236364)
(1.05052e+08 701.846 17240.8 8.4621e+07 2.39482e+07 198807)
(1.05034e+08 795.235 9372.6 8.45942e+07 2.3992e+07 169819)
(1.05055e+08 251.954 5845.27 8.46176e+07 2.39539e+07 209494)
(1.05043e+08 203.49 5552.81 8.46057e+07 2.3992e+07 180461)
(1.05046e+08 -1004.72 6998.95 8.46114e+07 2.39855e+07 186430)
(1.05052e+08 410.74 -2918.66 8.46167e+07 2.39808e+07 205446)
(1.05073e+08 3062.22 -2165.48 8.46595e+07 2.39928e+07 221759)
(1.05053e+08 501.049 5196.81 8.46274e+07 2.40777e+07 187201)
(1.05045e+08 -1792.49 -430.592 8.46124e+07 2.39925e+07 184193)
(1.05041e+08 2126.6 -1811.28 8.46028e+07 2.39955e+07 176782)
(1.0505e+08 -325.401 138.425 8.46251e+07 2.40769e+07 183153)
(1.05046e+08 -2177.87 261.639 8.46122e+07 2.39923e+07 183493)
(1.05054e+08 -788.815 -207.397 8.46187e+07 2.39875e+07 203618)
(1.0504e+08 -392.313 -2405.92 8.46033e+07 2.39863e+07 179395)
(1.05048e+08 572.244 -13045.7 8.46104e+07 2.39869e+07 196785)
(1.05072e+08 797.902 -9687.68 8.46528e+07 2.39892e+07 223688)
(1.05041e+08 -673.179 -3177.51 8.46058e+07 2.39962e+07 176852)
(1.05041e+08 -1990.23 -15655.8 8.46023e+07 2.39556e+07 185026)
(1.05082e+08 2498.52 -16058.6 8.46673e+07 2.39493e+07 247384)
(1.05013e+08 75.9194 -19063.3 8.45706e+07 2.40068e+07 169214)
(1.04878e+08 -50407.7 -100410 8.45474e+07 2.39702e+07 166847)
(1.03381e+08 -254041 -773442 8.41814e+07 2.36036e+07 -615414)
(8.85296e+07 -456732 -4.20241e+06 7.81343e+07 2.18058e+07 -8.60238e+06)
(4.97687e+07 -936101 -2.49543e+07 7.38727e+07 2.1067e+07 1.24294e+07)
(5.26197e+07 917389 2.5987e+07 8.56358e+07 1.36127e+07 1.84625e+07)
(9.39593e+07 397457 4.41386e+06 9.09615e+07 1.38134e+07 -3.00071e+06)
(1.09652e+08 212703 857851 9.77953e+07 1.51638e+07 5.54333e+06)
(1.11312e+08 44496.6 109997 9.83877e+07 1.54573e+07 6.48962e+06)
(1.11488e+08 2796.7 21830.5 9.84549e+07 1.54522e+07 6.52677e+06)
(1.11516e+08 -2408.14 12812.7 9.8494e+07 1.55268e+07 6.52765e+06)
(1.11527e+08 -1438.36 16663.1 9.85045e+07 1.54357e+07 6.55046e+06)
(1.11499e+08 1155.91 8763.18 9.84566e+07 1.54745e+07 6.50969e+06)
(1.11518e+08 -72.3419 6463.59 9.84883e+07 1.54751e+07 6.53357e+06)
(1.11511e+08 -1129.66 10385.9 9.84664e+07 1.54694e+07 6.53385e+06)
(1.11517e+08 -1045.6 5755.27 9.84819e+07 1.54383e+07 6.53895e+06)
(1.11507e+08 2082.16 1371.05 9.84641e+07 1.54697e+07 6.52634e+06)
(1.11505e+08 2526.96 -1673.82 9.84662e+07 1.55201e+07 6.51341e+06)
(1.11495e+08 -654.7 953.416 9.84419e+07 1.54829e+07 6.50527e+06)
(1.11506e+08 -1101 374.929 9.84657e+07 1.54713e+07 6.52043e+06)
(1.11502e+08 1324.86 -2158.08 9.84556e+07 1.54721e+07 6.51508e+06)
(1.11493e+08 -172.696 -206.987 9.84401e+07 1.54823e+07 6.50207e+06)
(1.11506e+08 -1777.14 930.782 9.84658e+07 1.54712e+07 6.5192e+06)
(1.11516e+08 -873.964 -1183.77 9.84714e+07 1.54688e+07 6.54427e+06)
(1.11502e+08 -53.3419 -3381.4 9.84599e+07 1.5471e+07 6.51529e+06)
(1.11504e+08 1415.92 -7001.84 9.84618e+07 1.54738e+07 6.51976e+06)
(1.11515e+08 946.595 -8472.72 9.84834e+07 1.54945e+07 6.52945e+06)
(1.11503e+08 -619.361 -12671.4 9.84618e+07 1.54734e+07 6.51432e+06)
(1.11513e+08 -513.821 -15596.8 9.848e+07 1.54726e+07 6.52819e+06)
(1.11527e+08 1282.42 -10847.9 9.85075e+07 1.54896e+07 6.54969e+06)
(1.11476e+08 -2487.25 -19369.5 9.84363e+07 1.54829e+07 6.51171e+06)
(1.11317e+08 -44581.5 -111102 9.83939e+07 1.54482e+07 6.5011e+06)
(1.09646e+08 -211273 -860221 9.7781e+07 1.5171e+07 5.54043e+06)
(9.3963e+07 -398069 -4.42041e+06 9.0964e+07 1.38127e+07 -2.99784e+06)
(5.26318e+07 -916341 -2.59808e+07 8.56679e+07 1.36077e+07 1.84834e+07)
(5.41923e+07 721259 2.68888e+07 9.2776e+07 8.49601e+06 2.19495e+07)
(9.69917e+07 314115 4.62067e+06 9.87876e+07 8.44997e+06 -80477)
(1.13368e+08 164937 936461 1.06193e+08 9.38225e+06 8.93393e+06)
(1.15118e+08 38004.9 121751 1.06898e+08 9.65493e+06 9.92489e+06)
(1.15314e+08 4067.61 25867.3 1.06982e+08 9.67598e+06 9.96743e+06)
(1.15314e+08 -1276.55 15950.3 1.06959e+08 9.71697e+06 9.93453e+06)
(1.15347e+08 -1989.76 12751.4 1.07014e+08 9.67894e+06 9.97706e+06)
(1.15325e+08 798.175 12319.8 1.06971e+08 9.67274e+06 9.95121e+06)
(1.15324e+08 -841.333 6429.09 1.06974e+08 9.70943e+06 9.94368e+06)
(1.15337e+08 -1486.08 2222.78 1.06986e+08 9.64642e+06 9.96893e+06)
(1.15344e+08 -823.474 5130.41 1.07004e+08 9.66728e+06 9.97508e+06)
(1.15345e+08 102.896 5212.29 1.06994e+08 9.64535e+06 9.99108e+06)
(1.15327e+08 2478.81 -674.339 1.06966e+08 9.6512e+06 9.95903e+06)
(1.15323e+08 424.657 1544.58 1.06961e+08 9.67974e+06 9.94875e+06)
(1.1533e+08 -1307.39 469.449 1.06976e+08 9.67041e+06 9.95865e+06)
(1.15336e+08 963.073 -1730.08 1.06983e+08 9.64645e+06 9.96916e+06)
(1.15322e+08 430.046 -548.661 1.06961e+08 9.679e+06 9.94744e+06)
(1.15329e+08 -2186.05 165.823 1.06976e+08 9.67093e+06 9.95668e+06)
(1.15345e+08 -766.625 -1748.52 1.06993e+08 9.64552e+06 9.98901e+06)
(1.15326e+08 692.343 -3367.56 1.06969e+08 9.67005e+06 9.95469e+06)
(1.15333e+08 1530.43 -10707.5 1.06975e+08 9.67151e+06 9.97206e+06)
(1.15333e+08 948.506 -7856.27 1.06984e+08 9.67652e+06 9.95925e+06)
(1.15326e+08 -235.344 -3908.54 1.06972e+08 9.67205e+06 9.95145e+06)
(1.15339e+08 351.133 -16175.4 1.06991e+08 9.68494e+06 9.97615e+06)
(1.15336e+08 219.856 -14765.9 1.06992e+08 9.68607e+06 9.96592e+06)
(1.15299e+08 -4260.84 -19542.4 1.06952e+08 9.67688e+06 9.95403e+06)
(1.15138e+08 -37316.2 -127639 1.06921e+08 9.62467e+06 9.96771e+06)
(1.13357e+08 -163288 -937719 1.06177e+08 9.38689e+06 8.91422e+06)
(9.6996e+07 -313396 -4.62215e+06 9.87904e+07 8.44926e+06 -76517.1)
(5.41972e+07 -720722 -2.68822e+07 9.27868e+07 8.5297e+06 2.19522e+07)
(5.50579e+07 497658 2.75512e+07 9.71428e+07 5.28254e+06 2.38138e+07)
(9.86721e+07 231106 4.79117e+06 1.03574e+08 5.15476e+06 1.31306e+06)
(1.15526e+08 122623 995624 1.11398e+08 5.83652e+06 1.06147e+07)
(1.17349e+08 30046.2 142824 1.12172e+08 6.01931e+06 1.16642e+07)
(1.17551e+08 3498.17 27339.8 1.12245e+08 6.06767e+06 1.17059e+07)
(1.17559e+08 -518.597 11261.9 1.12229e+08 6.04572e+06 1.16824e+07)
(1.17586e+08 -1406.15 12598.8 1.12272e+08 6.06599e+06 1.17144e+07)
(1.17572e+08 -701.534 12094.4 1.12249e+08 6.03515e+06 1.16942e+07)
(1.17567e+08 -103.352 2424.92 1.12239e+08 6.03962e+06 1.16876e+07)
(1.17585e+08 -107.009 5801.01 1.12272e+08 6.0344e+06 1.17078e+07)
(1.17575e+08 -891.051 4415.87 1.12258e+08 6.0623e+06 1.16948e+07)
(1.17586e+08 -884.547 -2057.91 1.12271e+08 6.03328e+06 1.17152e+07)
(1.17589e+08 1467.87 4289.77 1.12273e+08 6.01681e+06 1.17196e+07)
(1.17572e+08 265.156 5277.17 1.12245e+08 6.03976e+06 1.16956e+07)
(1.17575e+08 -461.432 -3463.16 1.12252e+08 6.03372e+06 1.17e+07)
(1.17586e+08 731.112 -1243.56 1.12272e+08 6.034e+06 1.17123e+07)
(1.17572e+08 -180.131 3108.47 1.12244e+08 6.03905e+06 1.1695e+07)
(1.17575e+08 -1367.71 -4761.24 1.12252e+08 6.0343e+06 1.16989e+07)
(1.17584e+08 -1007.75 -2007 1.12268e+08 6.03322e+06 1.17091e+07)
(1.17581e+08 -455.803 765.884 1.1226e+08 6.01164e+06 1.17112e+07)
(1.17586e+08 2483.49 -6399.27 1.12261e+08 6.01449e+06 1.1724e+07)
(1.17569e+08 1524.24 -7188.46 1.12245e+08 6.06931e+06 1.16855e+07)
(1.17571e+08 -698.761 -11862.4 1.12249e+08 6.03542e+06 1.16931e+07)
(1.17579e+08 1040.69 -16087.6 1.1226e+08 6.03989e+06 1.1704e+07)
(1.17579e+08 -703.164 -10322.2 1.12263e+08 6.04983e+06 1.17053e+07)
(1.17552e+08 -4523.46 -24792.6 1.12246e+08 6.01543e+06 1.17118e+07)
(1.1737e+08 -27894.6 -144269 1.12199e+08 6.01486e+06 1.17034e+07)
(1.15526e+08 -121558 -993713 1.11395e+08 5.83838e+06 1.06174e+07)
(9.86758e+07 -230881 -4.79281e+06 1.03576e+08 5.15375e+06 1.31817e+06)
(5.50573e+07 -498268 -2.75484e+07 9.71362e+07 5.28852e+06 2.38083e+07)
(5.55674e+07 316129 2.79892e+07 9.98556e+07 3.30147e+06 2.48611e+07)
(9.96483e+07 160442 4.92658e+06 1.06518e+08 3.17181e+06 2.02836e+06)
(1.16816e+08 88800.2 1.04081e+06 1.14633e+08 3.67008e+06 1.15164e+07)
(1.18701e+08 21503.1 149039 1.15479e+08 3.77886e+06 1.26139e+07)
(1.18908e+08 2799.4 28502.5 1.15544e+08 3.79835e+06 1.26562e+07)
(1.18927e+08 534.852 14375 1.15546e+08 3.79954e+06 1.26403e+07)
(1.1893e+08 -1026.14 11678.3 1.15549e+08 3.823e+06 1.26359e+07)
(1.18936e+08 -1069.05 8653.64 1.15559e+08 3.79236e+06 1.26454e+07)
(1.18933e+08 826.936 6145.42 1.15553e+08 3.79582e+06 1.2643e+07)
(1.18938e+08 -130.009 5420.96 1.15564e+08 3.81812e+06 1.26445e+07)
(1.18935e+08 -1130.13 3723.85 1.15556e+08 3.79483e+06 1.26453e+07)
(1.18945e+08 724.12 -1901 1.15574e+08 3.79752e+06 1.26573e+07)
(1.18948e+08 588.391 1397.2 1.1558e+08 3.82008e+06 1.26584e+07)
(1.18937e+08 -1218.51 5118.06 1.15558e+08 3.79525e+06 1.26488e+07)
(1.18938e+08 483.076 61.0872 1.1556e+08 3.79112e+06 1.26494e+07)
(1.18939e+08 581.45 -867.478 1.15565e+08 3.81734e+06 1.2647e+07)
(1.18937e+08 -987.039 -643.684 1.15557e+08 3.79453e+06 1.26474e+07)
(1.18938e+08 -636.721 -1636.47 1.15562e+08 3.79192e+06 1.26499e+07)
(1.18942e+08 -241.661 -5851 1.15568e+08 3.79714e+06 1.26534e+07)
(1.18949e+08 -657.164 -6798.83 1.1558e+08 3.7907e+06 1.2664e+07)
(1.18952e+08 1274.99 -2040.6 1.15585e+08 3.7729e+06 1.26692e+07)
(1.18931e+08 1179.2 -2719.29 1.15548e+08 3.79874e+06 1.26404e+07)
(1.18935e+08 451.14 -8369.72 1.15559e+08 3.79302e+06 1.26444e+07)
(1.18932e+08 1894.35 -15719.2 1.15556e+08 3.82177e+06 1.2639e+07)
(1.18936e+08 -905.302 -17399.1 1.15563e+08 3.82604e+06 1.26479e+07)
(1.18919e+08 -4748.55 -23026.5 1.15568e+08 3.79308e+06 1.2666e+07)
(1.18707e+08 -20711.4 -145702 1.15488e+08 3.78051e+06 1.26253e+07)
(1.16817e+08 -88087.1 -1.04194e+06 1.14632e+08 3.67041e+06 1.15226e+07)
(9.96594e+07 -160150 -4.9288e+06 1.06528e+08 3.17134e+06 2.05137e+06)
(5.55665e+07 -316804 -2.79879e+07 9.98506e+07 3.30609e+06 2.48556e+07)
(5.58863e+07 190720 2.82606e+07 1.01557e+08 2.07119e+06 2.54905e+07)
(1.00244e+08 105522 5.01787e+06 1.08336e+08 1.96819e+06 2.44383e+06)
(1.1762e+08 62947 1.07433e+06 1.16667e+08 2.2913e+06 1.20665e+07)
(1.19544e+08 15838.9 156422 1.17565e+08 2.38523e+06 1.3185e+07)
(1.19754e+08 2208.82 28911.7 1.17631e+08 2.39983e+06 1.32174e+07)
(1.19781e+08 454.535 14358.6 1.1764e+08 2.40033e+06 1.32164e+07)
(1.19781e+08 -677.783 11151 1.17634e+08 2.40254e+06 1.32108e+07)
(1.19787e+08 -637.561 8581.95 1.17648e+08 2.39632e+06 1.32179e+07)
(1.19787e+08 459.077 6435.95 1.17645e+08 2.39803e+06 1.32185e+07)
(1.19791e+08 -97.707 5342.35 1.17648e+08 2.4003e+06 1.32296e+07)
(1.19788e+08 -282.287 -394.072 1.17647e+08 2.39881e+06 1.32206e+07)
(1.19797e+08 1205.89 1684.02 1.17661e+08 2.39948e+06 1.32312e+07)
(1.19787e+08 -4.38045 5284.82 1.17645e+08 2.42349e+06 1.32171e+07)
(1.19789e+08 -1743.42 1288.71 1.17648e+08 2.39834e+06 1.32218e+07)
(1.19788e+08 172.09 97.441 1.17646e+08 2.39532e+06 1.32203e+07)
(1.19792e+08 585.389 -592.259 1.17649e+08 2.39977e+06 1.32298e+07)
(1.19788e+08 -605.963 -901.322 1.17648e+08 2.39773e+06 1.32199e+07)
(1.19789e+08 -527.495 -5242.08 1.17649e+08 2.39584e+06 1.32216e+07)
(1.19807e+08 520.069 -2389.55 1.17672e+08 2.38131e+06 1.32513e+07)
(1.1979e+08 904.444 -3572.19 1.1765e+08 2.4179e+06 1.32209e+07)
(1.19797e+08 279.264 -4914.13 1.17667e+08 2.4199e+06 1.32284e+07)
(1.19786e+08 -384.353 -2220.28 1.17643e+08 2.40089e+06 1.32177e+07)
(1.19787e+08 301.723 -8424.72 1.17647e+08 2.39711e+06 1.32176e+07)
(1.19783e+08 1893.09 -11646.8 1.17638e+08 2.40169e+06 1.32136e+07)
(1.19778e+08 113.11 -13958.3 1.17634e+08 2.42689e+06 1.32117e+07)
(1.19759e+08 -4348.24 -31750 1.17642e+08 2.41918e+06 1.32232e+07)
(1.19556e+08 -16359.3 -156511 1.17582e+08 2.36619e+06 1.32052e+07)
(1.17622e+08 -62329.6 -1.07136e+06 1.16668e+08 2.29063e+06 1.20733e+07)
(1.00245e+08 -105034 -5.01897e+06 1.08338e+08 1.967e+06 2.44776e+06)
(5.58859e+07 -191152 -2.82603e+07 1.01556e+08 2.07456e+06 2.54876e+07)
(5.60913e+07 111765 2.84222e+07 1.02626e+08 1.29875e+06 2.58821e+07)
(1.00616e+08 67121.9 5.07744e+06 1.09459e+08 1.22616e+06 2.70325e+06)
(1.18128e+08 43605.5 1.09838e+06 1.17954e+08 1.44052e+06 1.24161e+07)
(1.20075e+08 11340.2 161885 1.18881e+08 1.50679e+06 1.35464e+07)
(1.20295e+08 1662.17 30162.3 1.18953e+08 1.51792e+06 1.35898e+07)
(1.2032e+08 519.006 14481.5 1.18961e+08 1.51762e+06 1.358e+07)
(1.20322e+08 -403.722 10809.6 1.18959e+08 1.51928e+06 1.35777e+07)
(1.20325e+08 -425.086 8290.09 1.18966e+08 1.51551e+06 1.35801e+07)
(1.20326e+08 118.857 6422.45 1.18966e+08 1.51627e+06 1.3581e+07)
(1.2033e+08 -73.2728 5236.49 1.18968e+08 1.5187e+06 1.35913e+07)
(1.20327e+08 614.233 3017.43 1.18967e+08 1.51719e+06 1.35841e+07)
(1.20327e+08 730.612 1965.97 1.18967e+08 1.53873e+06 1.35827e+07)
(1.20324e+08 -636.978 1870.07 1.18959e+08 1.52139e+06 1.35812e+07)
(1.20328e+08 -1566.49 837.159 1.18968e+08 1.51709e+06 1.35845e+07)
(1.20332e+08 14.8729 -28.5642 1.18974e+08 1.49673e+06 1.35911e+07)
(1.20326e+08 886.045 -372.106 1.18965e+08 1.51801e+06 1.35819e+07)
(1.20326e+08 -458.653 -999.725 1.18967e+08 1.51678e+06 1.35822e+07)
(1.20326e+08 655.391 -5479.51 1.18965e+08 1.5152e+06 1.35823e+07)
(1.20336e+08 -0.562697 -2276.17 1.18983e+08 1.53889e+06 1.35924e+07)
(1.2033e+08 125.863 138.247 1.18969e+08 1.49912e+06 1.35902e+07)
(1.20323e+08 680.9 -4536.07 1.1896e+08 1.53956e+06 1.35773e+07)
(1.20325e+08 -757.049 -5569.22 1.18964e+08 1.51823e+06 1.35826e+07)
(1.20325e+08 209.772 -8316.14 1.18966e+08 1.51628e+06 1.35806e+07)
(1.20323e+08 1075.91 -11107.7 1.18961e+08 1.51909e+06 1.35794e+07)
(1.20316e+08 -58.0123 -14104.4 1.18951e+08 1.52231e+06 1.35777e+07)
(1.20292e+08 -2173.78 -33067.1 1.18951e+08 1.51756e+06 1.3584e+07)
(1.20083e+08 -11932.1 -162040 1.18892e+08 1.52686e+06 1.35584e+07)
(1.1813e+08 -44020.5 -1.09513e+06 1.17955e+08 1.43915e+06 1.24218e+07)
(1.00616e+08 -66436.4 -5.07836e+06 1.0946e+08 1.22504e+06 2.70479e+06)
(5.60915e+07 -111948 -2.84228e+07 1.02629e+08 1.30124e+06 2.58809e+07)
(5.62274e+07 64720.4 2.85162e+07 1.03308e+08 789989 2.61353e+07)
(1.0085e+08 42045.6 5.11453e+06 1.10151e+08 762186 2.86812e+06)
(1.18448e+08 29465.2 1.1152e+06 1.18759e+08 901011 1.26373e+07)
(1.20409e+08 7579.64 165762 1.19708e+08 947136 1.37763e+07)
(1.20634e+08 1168.89 30154.5 1.19787e+08 936315 1.38172e+07)
(1.2066e+08 869.116 14745.1 1.19792e+08 954540 1.38111e+07)
(1.20662e+08 -189.665 10596.2 1.19792e+08 955367 1.38099e+07)
(1.20664e+08 -275.126 8035.78 1.19796e+08 953652 1.38104e+07)
(1.20665e+08 17.7915 6154.67 1.19795e+08 954158 1.38106e+07)
(1.20664e+08 -91.5852 5042.58 1.19795e+08 955464 1.38105e+07)
(1.20666e+08 190.323 3276.54 1.19796e+08 954548 1.38146e+07)
(1.20662e+08 478.931 2289.54 1.19787e+08 956663 1.38114e+07)
(1.20665e+08 -143.336 1845.16 1.19793e+08 957487 1.38153e+07)
(1.20667e+08 -648.18 -3044.27 1.19797e+08 954975 1.38151e+07)
(1.20675e+08 59.024 -32.1905 1.19811e+08 953374 1.38253e+07)
(1.20666e+08 294.587 3279.92 1.19797e+08 955958 1.38135e+07)
(1.20666e+08 -765.608 -1136.69 1.19797e+08 955020 1.38132e+07)
(1.2067e+08 1047.23 -2010.86 1.19803e+08 936009 1.38199e+07)
(1.20665e+08 730.203 -5593.84 1.19794e+08 977535 1.38112e+07)
(1.20674e+08 -1060.57 -3092.92 1.19809e+08 955069 1.38256e+07)
(1.20666e+08 17.4118 -894.912 1.19794e+08 940366 1.3817e+07)
(1.20665e+08 31.1386 -5734.56 1.19793e+08 954668 1.38139e+07)
(1.20665e+08 219.774 -8204.83 1.19796e+08 954359 1.38115e+07)
(1.20663e+08 573.979 -10713.6 1.19793e+08 955533 1.38116e+07)
(1.20659e+08 -190.98 -14156.8 1.19788e+08 957323 1.3812e+07)
(1.20631e+08 -1589.07 -30525.3 1.19782e+08 954390 1.3816e+07)
(1.20412e+08 -8636.37 -166366 1.19707e+08 949440 1.37835e+07)
(1.18448e+08 -29720.2 -1.11539e+06 1.18757e+08 899383 1.26409e+07)
(1.00849e+08 -40735 -5.11549e+06 1.10151e+08 761353 2.8678e+06)
(5.62239e+07 -64444.3 -2.85175e+07 1.03301e+08 811330 2.61263e+07)
(5.63147e+07 37146.6 2.85678e+07 1.03736e+08 497709 2.62925e+07)
(1.00995e+08 24911.1 5.14198e+06 1.10574e+08 467465 2.97018e+06)
(1.18645e+08 19294.4 1.12659e+06 1.19257e+08 555345 1.27745e+07)
(1.20618e+08 5637.06 165243 1.20223e+08 586545 1.39205e+07)
(1.20849e+08 753.542 30498.1 1.20312e+08 591348 1.39664e+07)
(1.20871e+08 219.406 18274.2 1.20308e+08 590840 1.39548e+07)
(1.20874e+08 -7.18427 10504.1 1.2031e+08 591606 1.39543e+07)
(1.20876e+08 -153.957 7875.89 1.20312e+08 590938 1.39544e+07)
(1.20876e+08 68.9426 6085.43 1.20312e+08 591437 1.39544e+07)
(1.20876e+08 -156.581 4948.19 1.20311e+08 592729 1.39551e+07)
(1.20877e+08 -430.775 3383.2 1.20311e+08 591020 1.39581e+07)
(1.20881e+08 387.955 2499.91 1.20315e+08 575347 1.39645e+07)
(1.20878e+08 412.441 1772.98 1.20312e+08 593031 1.39603e+07)
(1.20878e+08 59.0416 173.32 1.20314e+08 592045 1.39591e+07)
(1.20878e+08 73.4247 94.7259 1.20313e+08 609470 1.39592e+07)
(1.20878e+08 -185.105 36.9394 1.20313e+08 592822 1.39596e+07)
(1.20878e+08 -109.253 -4782.75 1.20314e+08 592449 1.39584e+07)
(1.20886e+08 568.291 -1820.1 1.20328e+08 591711 1.39685e+07)
(1.20874e+08 527.193 1354.45 1.20306e+08 595869 1.39555e+07)
(1.20878e+08 -236.455 -6533.44 1.20312e+08 610461 1.39594e+07)
(1.20885e+08 -695.891 -4294.17 1.20325e+08 594496 1.39692e+07)
(1.20875e+08 -345.713 -2418.17 1.20308e+08 590927 1.3957e+07)
(1.20876e+08 313.467 -8047 1.20312e+08 591718 1.3956e+07)
(1.20875e+08 267.935 -10538.7 1.2031e+08 591750 1.39563e+07)
(1.20871e+08 -349.789 -14281.1 1.20308e+08 592452 1.39574e+07)
(1.20841e+08 -1306.24 -34492.2 1.20297e+08 590353 1.39597e+07)
(1.20628e+08 -6208.03 -169497 1.20236e+08 570578 1.39384e+07)
(1.18652e+08 -19327.1 -1.12349e+06 1.19265e+08 536449 1.27852e+07)
(1.00994e+08 -23983.4 -5.1378e+06 1.10574e+08 467252 2.97022e+06)
(5.63083e+07 -36581.7 -2.85719e+07 1.0372e+08 497532 2.62783e+07)
(5.63606e+07 20812.3 2.86024e+07 1.03972e+08 314327 2.63713e+07)
(1.01083e+08 13868.3 5.1499e+06 1.10827e+08 275486 3.03263e+06)
(1.18766e+08 11983.8 1.13401e+06 1.19558e+08 328854 1.28576e+07)
(1.20744e+08 4030.77 170841 1.20535e+08 348892 1.40079e+07)
(1.20973e+08 207.638 31160.9 1.20615e+08 369073 1.40538e+07)
(1.20998e+08 -164.61 14822.6 1.20619e+08 350778 1.4041e+07)
(1.21003e+08 225.366 10530.3 1.20624e+08 351679 1.40418e+07)
(1.21004e+08 -68.8051 7784.51 1.20625e+08 351412 1.40416e+07)
(1.21004e+08 7.74112 6131.84 1.20625e+08 351917 1.40416e+07)
(1.21008e+08 -329.851 4904.36 1.20628e+08 352810 1.40506e+07)
(1.21004e+08 112.815 -99.7098 1.20622e+08 351011 1.40439e+07)
(1.21015e+08 463.449 2704.09 1.2064e+08 352874 1.40579e+07)
(1.21006e+08 -90.7434 5176.69 1.20627e+08 352865 1.40473e+07)
(1.21006e+08 -555.411 96.8669 1.20627e+08 352282 1.40462e+07)
(1.21008e+08 -56.0966 221.496 1.20626e+08 334828 1.40495e+07)
(1.2101e+08 473.228 145.69 1.20629e+08 352456 1.40554e+07)
(1.2101e+08 695.86 -1408.51 1.2063e+08 352869 1.40538e+07)
(1.21008e+08 372.546 -1637.53 1.2063e+08 370764 1.4047e+07)
(1.21005e+08 -828.548 -2024.29 1.20623e+08 354798 1.40459e+07)
(1.21007e+08 511.13 -3127.39 1.20626e+08 335593 1.40498e+07)
(1.21008e+08 -422.211 -4399.15 1.20629e+08 372455 1.40495e+07)
(1.21008e+08 -854.858 -5961.5 1.2063e+08 333645 1.40501e+07)
(1.21005e+08 595.227 -7949.16 1.20626e+08 352304 1.40442e+07)
(1.21003e+08 87.7779 -10520.6 1.20624e+08 351450 1.40435e+07)
(1.21e+08 -656.326 -14402.4 1.20623e+08 351950 1.4045e+07)
(1.20974e+08 72.8058 -34793.3 1.2062e+08 333059 1.40536e+07)
(1.20754e+08 -3023.89 -175264 1.20551e+08 368113 1.4024e+07)
(1.18777e+08 -12918.3 -1.13104e+06 1.19576e+08 328276 1.2873e+07)
(1.01083e+08 -14181.9 -5.14713e+06 1.10827e+08 275248 3.03405e+06)
(5.63597e+07 -20556.5 -2.86005e+07 1.03973e+08 294674 2.63679e+07)
(5.639e+07 10724.5 2.86197e+07 1.04115e+08 135495 2.64235e+07)
(1.01132e+08 7902.26 5.1573e+06 1.10968e+08 144139 3.06583e+06)
(1.18833e+08 6454.64 1.13849e+06 1.19728e+08 172695 1.29041e+07)
(1.20819e+08 1405.27 172778 1.20715e+08 183669 1.40657e+07)
(1.21041e+08 -319.792 30585.3 1.20787e+08 167031 1.4094e+07)
(1.21075e+08 723.211 15051.9 1.20806e+08 167122 1.40963e+07)
(1.21076e+08 628.226 10621.4 1.20802e+08 185246 1.40916e+07)
(1.21076e+08 -14.2804 7735.93 1.20803e+08 185129 1.40907e+07)
(1.21077e+08 -70.4864 5971.22 1.20803e+08 185600 1.40911e+07)
(1.21077e+08 -682.062 4602.84 1.20802e+08 185307 1.40912e+07)
(1.21081e+08 710.055 3541.58 1.20809e+08 167421 1.40986e+07)
(1.21081e+08 753.266 2927.35 1.20807e+08 204180 1.40995e+07)
(1.21079e+08 -618.692 1674.89 1.20804e+08 186463 1.40968e+07)
(1.21079e+08 -129.588 -3449.23 1.20805e+08 185795 1.40954e+07)
(1.21086e+08 -224.486 21.9831 1.20815e+08 185686 1.4105e+07)
(1.21078e+08 36.9246 3597 1.20802e+08 184377 1.40948e+07)
(1.21078e+08 519.594 -1090.72 1.20804e+08 185851 1.40942e+07)
(1.21076e+08 206.439 -1323.37 1.20799e+08 186883 1.40923e+07)
(1.21082e+08 -81.4273 -5412.58 1.20806e+08 186597 1.41041e+07)
(1.21086e+08 251.497 -3028.36 1.20816e+08 186632 1.41057e+07)
(1.21081e+08 -309.425 -4658.6 1.20803e+08 187578 1.41041e+07)
(1.21085e+08 -434.815 -6119.68 1.20816e+08 184830 1.41041e+07)
(1.21081e+08 -5.61957 -4752.58 1.20807e+08 185687 1.41017e+07)
(1.21075e+08 73.0627 -10566.1 1.20801e+08 184401 1.4092e+07)
(1.21073e+08 4.06589 -17923.2 1.20802e+08 185393 1.40946e+07)
(1.21052e+08 539.728 -31472.6 1.20807e+08 184398 1.41086e+07)
(1.20817e+08 -1236.43 -169325 1.2071e+08 203071 1.40629e+07)
(1.18837e+08 -7686.45 -1.1392e+06 1.19734e+08 190759 1.29106e+07)
(1.01131e+08 -7989.06 -5.15757e+06 1.10966e+08 142991 3.0668e+06)
(5.63887e+07 -10535.9 -2.86198e+07 1.04115e+08 155495 2.64182e+07)
(5.64078e+07 3339.5 2.86243e+07 1.04193e+08 48776.3 2.64557e+07)
(1.01153e+08 2149.83 5.16575e+06 1.11032e+08 44633.4 3.07935e+06)
(1.18863e+08 1940.71 1.14043e+06 1.19804e+08 53612.2 1.29245e+07)
(1.20847e+08 128.325 169028 1.20791e+08 56505.3 1.40789e+07)
(1.21085e+08 245.615 27252.4 1.20889e+08 40264.1 1.41292e+07)
(1.21114e+08 501.009 18585.6 1.20897e+08 57517.5 1.41247e+07)
(1.21109e+08 14.9023 14174 1.20883e+08 57384.2 1.41142e+07)
(1.21109e+08 13.0574 7726.03 1.20883e+08 57495.2 1.41128e+07)
(1.21109e+08 -33.1043 5885.51 1.20883e+08 57690.6 1.41135e+07)
(1.2111e+08 -39.5643 1034.28 1.20883e+08 57512.1 1.4113e+07)
(1.21119e+08 191.614 3679.37 1.20899e+08 57678.4 1.41266e+07)
(1.2111e+08 -35.6536 6560.74 1.20879e+08 58254.4 1.4117e+07)
(1.21115e+08 -156.656 1622.89 1.20887e+08 57708.2 1.41271e+07)
(1.21111e+08 442.404 -182.542 1.20885e+08 57860.2 1.41172e+07)
(1.21112e+08 -344.048 -188.922 1.20884e+08 75311.7 1.41186e+07)
(1.21109e+08 -429.346 278.622 1.2088e+08 56397.1 1.41143e+07)
(1.21114e+08 423.802 -775.252 1.20887e+08 57910.6 1.4124e+07)
(1.2111e+08 112.816 -1430.22 1.20881e+08 58278.6 1.41159e+07)
(1.21111e+08 637.19 -2053.28 1.20884e+08 57372.5 1.4117e+07)
(1.21113e+08 100.54 -2906.05 1.20887e+08 76309 1.41208e+07)
(1.21111e+08 -355.272 -4690.12 1.20882e+08 58442.7 1.41183e+07)
(1.21111e+08 -200.184 -6242.11 1.20883e+08 74958.7 1.41175e+07)
(1.2111e+08 -604.953 -7893.89 1.20884e+08 57261 1.41153e+07)
(1.21107e+08 72.1172 -10391.6 1.20879e+08 56266.9 1.41128e+07)
(1.21106e+08 670.991 -14482.1 1.20883e+08 57450.9 1.41176e+07)
(1.21077e+08 122.389 -31451.2 1.20874e+08 74855.7 1.4122e+07)
(1.20845e+08 -742.049 -173244 1.20783e+08 57858 1.40808e+07)
(1.18864e+08 -3057.22 -1.14179e+06 1.19802e+08 54638.7 1.29267e+07)