/*--------------------------------*- C++ -*----------------------------------*\
| =========                 |                                                 |
| \\      /  F ield         | OpenFOAM: The Open Source CFD Toolbox           |
|  \\    /   O peration     | Version:  2106                                  |
|   \\  /    A nd           | Website:  www.openfoam.com                      |
|    \\/     M anipulation  |                                                 |
\*---------------------------------------------------------------------------*/
FoamFile
{
    version     2.0;
    format      ascii;
    arch        "LSB;label=32;scalar=64";
    class       volTensorField;
    location    "453";
    object      testEpsilon;
}
// * * * * * * * * * * * * * * * * * * * * * * * * * * * * * * * * * * * * * //

dimensions      [0 0 0 0 0 0 0];

internalField   nonuniform List<tensor> 
9000
(
(-0.0855858 0.00384385 -0.105467 -0.0043715 -0.147125 -0.257522 0.201804 0.380348 -0.0253481)
(-0.0167746 0.00368626 -0.00285664 -0.00261094 -0.156479 -0.270384 0.0216345 0.400648 -0.069742)
(-0.00192955 0.00248178 0.00204119 -0.00181036 -0.166389 -0.287072 0.00309947 0.425391 -0.0595085)
(-0.000321296 0.000467327 0.00032488 -0.000366077 -0.168001 -0.290843 0.000585614 0.430939 -0.0573866)
(-5.5579e-05 -3.82642e-05 -2.79392e-05 2.2461e-05 -0.168083 -0.290957 0.000112623 0.431107 -0.0573969)
(-4.16468e-06 -2.26257e-05 -1.4665e-05 1.86295e-05 -0.167902 -0.290182 5.29001e-05 0.429911 -0.0576675)
(-1.55177e-06 -9.62486e-07 -7.71311e-08 9.74589e-07 -0.168028 -0.290742 5.13494e-05 0.430798 -0.0575508)
(-5.32003e-08 -3.08991e-05 -1.86981e-05 1.90791e-05 -0.167896 -0.290173 3.30014e-05 0.429905 -0.0576658)
(-9.14636e-07 4.00811e-05 2.55996e-05 -2.71795e-05 -0.167895 -0.290165 3.55273e-05 0.429891 -0.0576716)
(-6.56571e-06 1.79203e-05 9.14281e-06 -4.55943e-06 -0.168069 -0.290853 -2.50517e-05 0.430955 -0.0574527)
(2.31912e-06 -6.42163e-05 -4.43463e-05 5.17399e-05 -0.167952 -0.290418 -5.53832e-05 0.430288 -0.0575762)
(7.86258e-06 1.73031e-05 1.35442e-05 -1.84259e-05 -0.16777 -0.289707 6.30158e-05 0.429195 -0.0578156)
(-4.44911e-06 5.99655e-05 4.12603e-05 -4.90762e-05 -0.168058 -0.290801 7.50577e-05 0.43088 -0.0574803)
(-4.28852e-06 -1.19951e-05 -1.07512e-05 1.36329e-05 -0.168076 -0.290809 -4.98998e-05 0.430906 -0.057467)
(3.47401e-06 6.0178e-06 3.8847e-06 -4.31461e-06 -0.167964 -0.290462 -5.87132e-07 0.430348 -0.0575613)
(-2.53985e-06 1.29385e-05 1.08062e-05 -1.53076e-05 -0.168072 -0.290865 5.06474e-05 0.43097 -0.057453)
(-2.12514e-06 -1.84907e-05 -1.44231e-05 1.91643e-05 -0.168074 -0.290804 -5.69426e-05 0.430898 -0.0574724)
(3.21464e-08 1.36293e-06 1.44461e-06 1.47392e-07 -0.167967 -0.290472 -6.46925e-06 0.430362 -0.0575528)
(-2.13343e-06 -4.47499e-05 -2.82394e-05 3.14439e-05 -0.168061 -0.290822 -1.96882e-05 0.430911 -0.0574683)
(4.6138e-06 -4.12316e-05 -2.66564e-05 2.84687e-05 -0.167782 -0.28975 -2.47456e-05 0.429256 -0.057782)
(2.71056e-06 5.92154e-05 4.01856e-05 -4.7633e-05 -0.167882 -0.290119 4.02621e-05 0.429832 -0.0576966)
(-5.72179e-06 4.56492e-05 2.91953e-05 -3.26182e-05 -0.168067 -0.290834 -1.46371e-05 0.430922 -0.0574702)
(-3.56706e-06 -3.50029e-05 -2.22702e-05 2.31955e-05 -0.16807 -0.290862 -4.13567e-05 0.430967 -0.0574541)
(-4.93796e-08 -7.41725e-06 -4.34289e-06 5.74323e-06 -0.167906 -0.290198 -4.91904e-05 0.429937 -0.0576562)
(-8.00463e-06 1.18816e-05 6.69343e-06 -8.59946e-06 -0.168057 -0.290801 -5.72768e-05 0.430875 -0.0574829)
(-5.41165e-05 -2.24515e-05 -1.37175e-05 2.62557e-05 -0.167916 -0.290294 -0.000177445 0.430082 -0.0575945)
(-0.000314691 -0.000438729 -0.000306314 0.000347322 -0.167871 -0.290362 -0.000580011 0.430209 -0.0575299)
(-0.00193018 -0.00245438 -0.00202151 0.00178338 -0.166385 -0.286991 -0.00304241 0.425287 -0.0595335)
(-0.0167777 -0.00367829 0.00286189 0.00260486 -0.156478 -0.27038 -0.021636 0.400643 -0.0697412)
(-0.0855857 -0.0038458 0.10547 0.00437336 -0.147125 -0.257511 -0.20181 0.380329 -0.0253516)
(-0.0724061 0.00189475 -0.103186 -0.00191781 -0.0980778 -0.0790824 0.196158 0.215462 -0.128979)
(-0.0163987 0.00216258 -0.00426188 -0.000797915 -0.103199 -0.0826141 0.0203227 0.226122 -0.175002)
(-0.00180253 0.00153304 0.000977756 -0.000667882 -0.109236 -0.0876409 0.00211635 0.24012 -0.171319)
(-0.000206687 0.000316017 0.000119201 -0.000174208 -0.110403 -0.0888341 0.000346547 0.243628 -0.170636)
(-2.76073e-05 -1.69146e-05 1.34045e-06 4.32086e-06 -0.110426 -0.0888724 6.7722e-05 0.243733 -0.170681)
(-4.72836e-06 -1.62144e-05 -2.45191e-06 9.81226e-06 -0.110207 -0.0886877 6.7227e-05 0.243416 -0.170695)
(-2.29074e-06 5.98303e-07 1.27947e-06 5.80313e-07 -0.110374 -0.0888013 5.02868e-05 0.243554 -0.170705)
(-1.58017e-06 -9.9534e-06 5.94739e-06 6.50912e-06 -0.110183 -0.0886871 -1.27248e-05 0.243428 -0.170691)
(-7.6033e-07 1.51948e-05 -5.54257e-06 -1.11371e-05 -0.110185 -0.0886862 7.21172e-05 0.243412 -0.170697)
(-1.2119e-06 1.10913e-05 -1.88671e-06 3.50366e-06 -0.1104 -0.0888378 6.79486e-05 0.243618 -0.170702)
(-5.1577e-07 -2.08948e-05 8.90268e-06 2.75762e-05 -0.110303 -0.0887464 -3.39356e-05 0.243879 -0.170671)
(1.18065e-07 2.42619e-07 -3.8397e-06 -1.20247e-05 -0.110082 -0.0885829 9.95368e-06 0.243643 -0.17066)
(-9.67331e-07 1.4682e-05 -8.00758e-06 -2.86546e-05 -0.110398 -0.0888099 5.41755e-05 0.243557 -0.170705)
(-7.31292e-07 3.49586e-06 3.89349e-06 9.0088e-06 -0.110376 -0.0888093 -7.61417e-07 0.243285 -0.170685)
(1.79356e-07 7.55315e-06 -7.89839e-07 -7.15613e-08 -0.110315 -0.088762 -2.43239e-06 0.243919 -0.170674)
(-2.94982e-07 -5.27419e-06 -2.49283e-06 -1.27326e-05 -0.110403 -0.0888425 -1.08574e-06 0.243632 -0.170705)
(-1.91872e-07 -2.09595e-06 3.29779e-06 1.23903e-05 -0.110374 -0.0888083 -3.74248e-06 0.243282 -0.170688)
(-1.38025e-07 4.2715e-06 -9.29673e-07 3.3737e-06 -0.110319 -0.0887651 -4.62732e-06 0.243925 -0.17067)
(-7.28639e-07 -1.81944e-05 5.51603e-06 1.39733e-05 -0.11039 -0.0888255 -5.29755e-05 0.243587 -0.170705)
(-8.0445e-07 -1.59825e-05 6.03225e-06 1.21257e-05 -0.110089 -0.0885987 -5.98235e-05 0.243699 -0.17066)
(-8.18322e-07 1.63934e-05 -1.00538e-05 -2.4709e-05 -0.110169 -0.0886659 2.11175e-05 0.243368 -0.170685)
(-9.78399e-07 1.90287e-05 -5.95442e-06 -1.51603e-05 -0.110409 -0.0888264 1.75222e-05 0.243585 -0.170709)
(-1.20242e-06 -1.13233e-05 6.42399e-06 9.1208e-06 -0.110401 -0.0888414 -8.06681e-05 0.24363 -0.170705)
(-1.72133e-06 -6.33797e-06 -1.25485e-06 2.78875e-06 -0.110199 -0.0887002 -4.47071e-05 0.243444 -0.17069)
(-5.40219e-06 1.01281e-05 2.04415e-06 -3.30161e-06 -0.110401 -0.0888166 -6.19589e-05 0.243553 -0.170708)
(-2.79674e-05 -1.74979e-06 7.34783e-06 2.15324e-05 -0.110217 -0.0887261 -0.000113343 0.243554 -0.170666)
(-0.000206409 -0.000311911 -0.000124874 0.000164904 -0.110291 -0.0887252 -0.000299695 0.243845 -0.170605)
(-0.00180269 -0.00152519 -0.000980849 0.000649932 -0.1092 -0.0875981 -0.00211633 0.239756 -0.171317)
(-0.0163989 -0.0021544 0.00426157 0.000796408 -0.103198 -0.0826117 -0.0203273 0.226116 -0.175)
(-0.0724052 -0.00189728 0.103188 0.00192037 -0.098082 -0.0790825 -0.196161 0.215443 -0.128978)
(-0.0763077 -0.00107838 -0.104052 0.00342357 -0.0575575 -0.00938328 0.197557 0.125728 -0.153394)
(-0.0165246 0.00145462 -0.00456834 0.000287755 -0.0602188 -0.0111295 0.0203088 0.132436 -0.201964)
(-0.00180481 0.00104114 0.000797185 -2.35932e-06 -0.0633676 -0.0116305 0.00194746 0.141077 -0.199927)
(-0.000186855 0.000229426 7.85786e-05 -3.31203e-05 -0.0641037 -0.0117955 0.000266308 0.143596 -0.199626)
(-1.87748e-05 9.32159e-07 1.35142e-06 -2.61733e-06 -0.0641061 -0.0118066 0.00011487 0.143693 -0.199685)
(-4.91279e-06 -1.2367e-05 -4.4981e-07 2.23938e-06 -0.064001 -0.0118174 7.18626e-05 0.143925 -0.199644)
(-2.21239e-06 3.69739e-06 2.697e-08 8.86726e-07 -0.0640773 -0.0117944 4.97887e-05 0.143562 -0.199692)
(-2.39669e-06 6.98762e-06 4.32201e-06 1.96912e-06 -0.063995 -0.0118342 3.81691e-05 0.14414 -0.199663)
(-1.51573e-06 -3.21361e-06 -4.53741e-06 -2.56434e-06 -0.0640035 -0.0118264 1.82638e-05 0.144116 -0.199667)
(1.17695e-06 -5.66197e-06 -2.89567e-06 2.87374e-07 -0.0640799 -0.0117974 1.97334e-05 0.14361 -0.199697)
(-7.86555e-07 -7.04834e-07 6.64028e-06 7.21506e-06 -0.0640691 -0.0118141 2.80792e-05 0.143579 -0.199682)
(-3.38357e-06 -1.80624e-06 8.51679e-07 -3.57206e-06 -0.063981 -0.0118424 6.22991e-06 0.144098 -0.199644)
(-2.42407e-07 1.21542e-06 -4.01286e-06 -8.10548e-06 -0.0640596 -0.011786 -3.71609e-05 0.143379 -0.199652)
(1.42808e-06 4.7401e-06 -1.17395e-06 2.81864e-06 -0.0640116 -0.0118005 1.7202e-06 0.14362 -0.199678)
(-8.74277e-07 5.92905e-07 -2.76628e-06 4.37948e-07 -0.0640736 -0.0118137 2.66663e-05 0.143608 -0.199687)
(-4.74727e-08 1.03037e-06 1.54716e-06 -3.13446e-06 -0.0640818 -0.0117999 -3.50016e-05 0.143625 -0.199698)
(1.09613e-06 -1.65219e-06 1.06933e-06 2.52024e-06 -0.0640111 -0.0118014 4.07082e-07 0.143617 -0.199681)
(3.48736e-07 -1.71614e-06 -2.00272e-06 2.32259e-06 -0.0640757 -0.011814 2.66e-05 0.143607 -0.199687)
(-3.83037e-07 1.18653e-06 5.02943e-06 3.56732e-06 -0.0640737 -0.0117916 2.55072e-06 0.143585 -0.199696)
(-3.12265e-06 2.87782e-06 5.26195e-06 2.69889e-06 -0.0639846 -0.011848 -4.96156e-06 0.144113 -0.199648)
(-2.74664e-06 -4.80222e-06 -5.34991e-06 -6.26003e-06 -0.0639856 -0.0118295 -3.56079e-05 0.144123 -0.199653)
(1.04417e-06 -7.05171e-07 -5.89508e-06 -4.40419e-06 -0.0640702 -0.0117861 -3.8873e-05 0.143395 -0.199679)
(2.27555e-08 6.97288e-06 2.96308e-06 3.15508e-06 -0.0640795 -0.0117991 -2.76679e-05 0.143624 -0.199699)
(-2.53386e-06 -7.48319e-06 6.22732e-07 -5.33726e-07 -0.0640134 -0.0118327 -4.26524e-05 0.144135 -0.199664)
(-4.2559e-06 8.38727e-06 1.50895e-06 -3.34793e-07 -0.0640738 -0.0117833 -6.28673e-05 0.14337 -0.199673)
(-2.04754e-05 -4.01009e-07 4.56072e-06 9.56174e-06 -0.0640259 -0.0118386 -0.000100809 0.144223 -0.199647)
(-0.000189011 -0.000235409 -8.07111e-05 3.06014e-05 -0.0640807 -0.0118071 -0.000303041 0.143533 -0.199608)
(-0.00180388 -0.00103585 -0.000798805 -2.57271e-06 -0.0632947 -0.0116227 -0.001959 0.14103 -0.199914)
(-0.0165236 -0.00145464 0.004565 -0.000288842 -0.060217 -0.0111285 -0.0202843 0.132431 -0.20196)
(-0.0763051 0.0010737 0.10405 -0.00341838 -0.0575672 -0.00938 -0.197556 0.125701 -0.153395)
(-0.0818812 -0.00282263 -0.107667 0.00645337 -0.0351692 0.00544029 0.204418 0.0763895 -0.154283)
(-0.0170839 0.00100057 -0.00471132 0.000759387 -0.0372346 0.0034568 0.0209967 0.0810868 -0.205375)
(-0.00186671 0.000756051 0.000844557 0.000233553 -0.0391095 0.00393223 0.00213919 0.0872944 -0.20349)
(-0.000206738 0.000168308 8.39829e-05 3.24675e-05 -0.0396325 0.00401798 0.000301822 0.0889652 -0.203201)
(-2.05354e-05 3.63794e-06 -3.04263e-06 -5.0876e-06 -0.0396419 0.00401809 8.95378e-05 0.0890581 -0.203266)
(-4.02754e-06 -1.04609e-05 -2.13085e-08 -2.87718e-06 -0.0395832 0.0039885 7.25146e-05 0.088882 -0.203232)
(-2.34479e-06 1.79521e-06 -2.08226e-06 9.25845e-07 -0.0396077 0.00401583 6.89248e-05 0.0888312 -0.20326)
(-2.27038e-06 4.80646e-06 -4.57519e-07 -1.72334e-06 -0.0396251 0.00398622 3.67951e-05 0.0890309 -0.203282)
(-1.09668e-06 -1.79532e-06 1.81646e-06 2.77214e-06 -0.0396192 0.00399175 2.08456e-05 0.0888774 -0.203244)
(7.43984e-07 -2.02098e-06 5.85668e-07 2.80991e-06 -0.0396174 0.00401664 2.09426e-05 0.0890002 -0.203276)
(-1.28766e-06 -1.10296e-06 -9.65381e-08 -2.79234e-06 -0.039613 0.00401124 2.72315e-05 0.0889807 -0.203271)
(-2.94604e-06 2.14991e-06 1.7713e-06 -5.57469e-07 -0.0396173 0.00398084 -1.30869e-05 0.0889926 -0.203248)
(3.10809e-07 8.55333e-06 3.78689e-07 3.31888e-06 -0.039572 0.00400197 -8.77427e-06 0.0890181 -0.203255)
(9.77394e-07 6.8768e-07 -1.64262e-06 1.25489e-06 -0.0395931 0.00399329 2.17907e-05 0.0893559 -0.20328)
(-1.01126e-06 -6.47863e-06 -6.61611e-07 -4.7085e-07 -0.0396104 0.0040112 -1.00779e-06 0.0890077 -0.203274)
(1.21476e-07 7.22608e-06 -2.99565e-08 1.01876e-06 -0.0396189 0.00401375 -6.99236e-06 0.0890167 -0.203279)
(8.99538e-07 -8.72937e-07 4.81221e-07 -3.88642e-07 -0.0395936 0.00399326 5.54547e-08 0.089353 -0.203284)
(7.13906e-08 -8.24483e-06 1.02248e-06 -1.98773e-07 -0.0396106 0.00401101 -8.10902e-09 0.0890071 -0.203276)
(-6.53381e-07 2.42095e-08 -1.29976e-06 -3.08244e-06 -0.0396143 0.0040192 4.95688e-07 0.0889804 -0.203253)
(-2.76992e-06 1.63899e-06 -1.53758e-06 -3.15999e-06 -0.0396188 0.00398058 -7.79016e-06 0.0890141 -0.203275)
(-2.23894e-06 -7.26552e-07 2.32293e-06 2.94514e-06 -0.0396204 0.00398487 -5.2901e-05 0.0890124 -0.203256)
(9.04623e-07 2.55429e-07 1.15696e-07 2.83804e-06 -0.0395823 0.00401304 -3.76748e-05 0.0889929 -0.203248)
(-4.28328e-07 3.59605e-08 -2.89175e-06 -2.64588e-06 -0.0396147 0.00401482 -9.42747e-06 0.0890185 -0.20328)
(-2.41931e-06 -5.20029e-06 1.91768e-06 -2.51583e-06 -0.0396238 0.00399159 -6.26153e-05 0.0888844 -0.203267)
(-3.3831e-06 7.63432e-06 8.64665e-07 2.05245e-06 -0.0395764 0.00401311 -6.3124e-05 0.0888383 -0.203224)
(-2.17801e-05 -3.13692e-06 2.56866e-06 3.43126e-06 -0.0396496 0.00398929 -7.64769e-05 0.0890852 -0.203262)
(-0.000208836 -0.000165674 -8.16905e-05 -2.97569e-05 -0.0396188 0.00401126 -0.0003076 0.0889212 -0.203191)
(-0.00186658 -0.000752438 -0.000845123 -0.000232477 -0.0390855 0.0039129 -0.00215351 0.0875983 -0.203464)
(-0.0170821 -0.0010089 0.00471011 -0.000761844 -0.0372333 0.00345699 -0.0210028 0.0810841 -0.205372)
(-0.0818857 0.00281407 0.107665 -0.00644334 -0.0351601 0.00544566 -0.204412 0.0762313 -0.154268)
(-0.086062 -0.00311443 -0.112092 0.00667115 -0.0220602 0.00482902 0.212844 0.0479474 -0.152276)
(-0.0177686 0.000666572 -0.00486995 0.00087437 -0.0235798 0.00285473 0.0219825 0.0507 -0.205726)
(-0.00195019 0.000561568 0.000909421 0.000263081 -0.0249337 0.00331621 0.00241647 0.0554738 -0.203764)
(-0.000234584 0.000122938 9.5751e-05 4.95751e-05 -0.0252887 0.00340406 0.000330708 0.0565238 -0.203433)
(-2.58438e-05 1.07831e-05 -4.54639e-06 5.96901e-08 -0.0252899 0.00340678 8.91832e-05 0.0565014 -0.203493)
(-3.7101e-06 -5.53427e-06 -9.02422e-07 -3.80208e-06 -0.0252461 0.00338902 5.05772e-05 0.0568083 -0.203523)
(-1.98163e-06 -4.68027e-06 -4.2861e-07 -8.96249e-07 -0.0252469 0.00339956 6.50314e-05 0.0564448 -0.2035)
(-2.02743e-06 4.69108e-06 -4.94606e-07 -2.09629e-07 -0.0252847 0.00340772 3.44695e-05 0.056587 -0.203524)
(-6.09081e-07 -1.68062e-06 1.54728e-06 1.40015e-06 -0.0252582 0.00339974 2.35121e-05 0.0565973 -0.203512)
(6.40565e-08 -4.42268e-06 1.00335e-06 4.29982e-08 -0.0252875 0.0034023 3.9263e-05 0.0565726 -0.203499)
(-1.46003e-06 -6.77951e-07 -5.1907e-07 -3.37584e-06 -0.0252697 0.00340174 2.28322e-05 0.0564525 -0.203501)
(-2.16132e-06 6.40484e-06 -1.00303e-06 1.66771e-06 -0.0252852 0.00340505 6.31859e-06 0.0565709 -0.203506)
(1.20064e-07 6.05834e-06 -1.52346e-06 3.73868e-06 -0.0252751 0.0033848 -4.96594e-06 0.0567868 -0.203526)
(6.70139e-07 -2.94901e-06 6.72591e-07 4.10734e-07 -0.0253022 0.0033956 3.0238e-06 0.0566316 -0.203521)
(-9.21503e-07 -4.56478e-06 1.32502e-06 2.96195e-07 -0.0252797 0.00340161 1.28579e-07 0.0565807 -0.203516)
(-3.10311e-08 4.38934e-06 -2.04191e-06 7.47126e-07 -0.0252901 0.00340354 -6.32495e-06 0.0565818 -0.203517)
(8.52625e-07 8.92956e-09 5.21185e-07 -6.7847e-07 -0.0253027 0.00339649 -1.32367e-06 0.0566283 -0.203525)
(-1.90025e-07 -5.84365e-06 3.18595e-06 -1.04634e-06 -0.0252791 0.00340108 4.22691e-07 0.0565809 -0.203518)
(-9.75281e-07 -4.63535e-07 -1.05543e-06 -2.92482e-06 -0.025287 0.00340109 -3.53402e-06 0.0565714 -0.203488)
(-1.91713e-06 1.64336e-06 -1.60463e-06 -1.85016e-06 -0.0252839 0.00340471 -1.1505e-05 0.0565762 -0.203519)
(-1.54703e-06 2.50157e-06 1.14127e-06 2.98796e-06 -0.0252843 0.00340455 -2.82874e-05 0.0565873 -0.203514)
(-7.40351e-08 4.46719e-07 9.54641e-08 3.22323e-06 -0.0252624 0.00338804 -3.29442e-05 0.0566839 -0.203515)
(-1.04802e-06 -1.32588e-06 -1.32678e-06 -1.07538e-06 -0.025281 0.0034015 -4.78e-05 0.0565889 -0.203521)
(-1.5942e-06 1.74444e-07 2.81371e-07 -2.16653e-06 -0.0252655 0.00340895 -6.075e-05 0.0565784 -0.203514)
(-3.06648e-06 3.22378e-06 1.05e-06 1.74816e-06 -0.0252421 0.00338236 -4.31075e-05 0.0566708 -0.203502)
(-2.68372e-05 -8.8754e-06 4.19087e-06 -7.67667e-07 -0.0253048 0.00340868 -7.92865e-05 0.0566187 -0.203501)
(-0.000236193 -0.000122596 -9.59892e-05 -5.0246e-05 -0.0252871 0.003407 -0.000334754 0.0564856 -0.203421)
(-0.00195029 -0.000558746 -0.00090966 -0.000260359 -0.0249506 0.0033031 -0.00242542 0.0555147 -0.203759)
(-0.0177657 -0.000669562 0.00487155 -0.000873751 -0.0235792 0.00285513 -0.0220095 0.0506966 -0.205724)
(-0.0860691 0.00310928 0.112069 -0.00666193 -0.0220286 0.00482611 -0.212796 0.0479308 -0.152266)
(-0.0887466 -0.00259468 -0.115953 0.005391 -0.0139522 0.00256114 0.220201 0.0303779 -0.151249)
(-0.0183655 0.000425886 -0.00501388 0.000791939 -0.0148841 0.000987692 0.0229282 0.0317728 -0.20654)
(-0.00203167 0.00041427 0.000954424 0.00022519 -0.0159411 0.00130418 0.00267624 0.0350708 -0.204478)
(-0.000259343 9.70513e-05 0.000102097 5.02937e-05 -0.0161942 0.00135398 0.000369931 0.0360782 -0.204176)
(-3.12108e-05 1.21752e-05 -6.05127e-06 3.59494e-06 -0.0161829 0.00135493 0.000106339 0.0361588 -0.204245)
(-4.21873e-06 -1.85065e-06 -1.46571e-06 -3.09856e-06 -0.0162007 0.00134795 6.33048e-05 0.0363247 -0.204283)
(-1.6263e-06 -5.93315e-06 1.65718e-06 -1.78114e-06 -0.0161557 0.00134598 4.77799e-05 0.0361793 -0.204262)
(-1.8111e-06 2.53859e-06 -4.22276e-07 5.55933e-07 -0.0161959 0.00135754 4.81862e-05 0.0361437 -0.204269)
(-1.04615e-06 -2.34627e-06 7.3288e-07 -9.15578e-07 -0.0161882 0.00134926 2.41927e-05 0.0362942 -0.204281)
(-2.11213e-07 -4.30923e-06 9.87058e-07 -1.45229e-06 -0.0161883 0.00134847 7.63068e-06 0.0360507 -0.204255)
(-9.62715e-07 -6.48339e-07 4.5418e-07 -2.54427e-06 -0.0161677 0.0013484 1.94364e-05 0.0361316 -0.204258)
(-1.52314e-06 1.06976e-06 -1.61705e-06 -6.70836e-07 -0.0161902 0.00135212 2.18251e-05 0.0360429 -0.204231)
(5.94144e-08 5.14706e-06 -1.51272e-06 4.46328e-06 -0.016208 0.001351 -1.10169e-06 0.0360667 -0.204256)
(2.88897e-07 -2.3836e-07 1.72004e-06 1.88476e-06 -0.0162083 0.00136034 4.2683e-06 0.036168 -0.204267)
(-9.43985e-07 -4.04968e-06 9.27808e-07 -1.01908e-06 -0.0161946 0.00135262 8.92244e-07 0.0361396 -0.204262)
(-7.3457e-08 2.63273e-06 -1.05402e-06 1.1011e-06 -0.0161923 0.00135348 -5.6535e-06 0.0360458 -0.204253)
(5.40845e-07 1.31252e-06 -1.2229e-08 3.5477e-07 -0.0162083 0.00136113 -2.11493e-06 0.0361643 -0.204268)
(-3.7788e-07 -5.10869e-06 1.94149e-06 -3.36662e-06 -0.0161939 0.00135242 -1.2986e-06 0.0361418 -0.204265)
(-8.14146e-07 -9.27352e-07 -5.73683e-07 -2.04485e-06 -0.0161915 0.00134333 -6.20534e-06 0.0360524 -0.204233)
(-1.58736e-06 2.18527e-06 -8.44903e-07 4.98946e-07 -0.0162007 0.00135786 -1.22111e-05 0.0361329 -0.204263)
(-1.22426e-06 3.58277e-06 -1.01073e-06 2.35069e-06 -0.0162036 0.00135608 -4.05021e-05 0.0361404 -0.204244)
(9.19548e-08 9.02678e-07 -4.95674e-07 2.77468e-06 -0.0161846 0.00134579 -2.99631e-05 0.0361701 -0.204267)
(-1.50628e-06 -5.98082e-07 1.29016e-06 -3.14347e-07 -0.0161945 0.00135223 -1.64436e-05 0.0361463 -0.20427)
(-1.8546e-06 2.58637e-06 -1.90922e-06 -1.22503e-06 -0.0161854 0.00135195 -6.08026e-05 0.0361966 -0.204248)
(-3.10333e-06 -2.19568e-07 8.11337e-07 1.07195e-06 -0.0161768 0.00134004 -5.80586e-05 0.0362129 -0.204262)
(-3.2179e-05 -1.21449e-05 7.49701e-06 -4.37439e-06 -0.0162139 0.00135954 -8.32628e-05 0.0361577 -0.204243)
(-0.000260754 -9.48408e-05 -0.000102806 -4.9834e-05 -0.0161899 0.00135424 -0.000392052 0.0359606 -0.204133)
(-0.00203128 -0.000410861 -0.000955498 -0.000222208 -0.0159495 0.00130956 -0.00268004 0.0350834 -0.204494)
(-0.0183624 -0.000424492 0.00501471 -0.000790544 -0.0148838 0.000989128 -0.0229348 0.0317687 -0.206537)
(-0.0887458 0.00259795 0.115926 -0.00539219 -0.0139398 0.0025537 -0.220148 0.030516 -0.151253)
(-0.0904038 -0.00185926 -0.118783 0.00378868 -0.00882206 0.00124305 0.225599 0.0192374 -0.15097)
(-0.0188018 0.000268789 -0.00512134 0.000627209 -0.00929998 0.000148013 0.0236967 0.019837 -0.207532)
(-0.00209852 0.000299548 0.000982677 0.00017586 -0.0101014 0.000349823 0.00287736 0.0222784 -0.20547)
(-0.000278903 7.45634e-05 0.000105901 4.19257e-05 -0.0103139 0.000377767 0.000447826 0.0229591 -0.205149)
(-3.65222e-05 9.48321e-06 -5.75116e-06 4.07918e-06 -0.0103214 0.000377423 0.000111747 0.0231469 -0.205216)
(-4.78532e-06 -9.48932e-08 -2.69231e-06 -1.91571e-06 -0.0103388 0.00038427 4.63546e-05 0.023055 -0.205247)
(-1.25073e-06 -3.73479e-06 1.48982e-06 -1.71684e-06 -0.0103029 0.000371527 4.73559e-05 0.0231463 -0.205233)
(-1.85432e-06 -1.80742e-06 1.61218e-07 -9.12424e-07 -0.0103203 0.000378247 4.67286e-05 0.02302 -0.205245)
(-1.01073e-06 -1.56053e-07 -2.67115e-07 -2.44644e-07 -0.0103299 0.00037881 9.66854e-06 0.0230368 -0.205248)
(-2.61682e-07 -3.20971e-07 8.30855e-07 -9.39035e-08 -0.0102985 0.000373514 2.16597e-05 0.0230219 -0.205242)
(-1.30374e-06 -1.06206e-06 2.10794e-07 -2.39254e-06 -0.0103085 0.000372785 1.69095e-05 0.0231307 -0.20525)
(-7.59813e-07 -1.65624e-06 -4.83771e-07 -1.77314e-06 -0.0103038 0.000371155 -7.49473e-06 0.0230199 -0.205232)
(6.31183e-07 2.45427e-06 1.19654e-07 3.23665e-06 -0.0103047 0.000379648 1.65118e-05 0.0229475 -0.205228)
(-4.26332e-07 -2.67294e-07 9.98058e-07 1.2953e-06 -0.0103272 0.000381022 1.94615e-05 0.0230351 -0.205241)
(-1.07823e-06 -1.37344e-06 -4.67112e-08 -4.15529e-07 -0.01032 0.000375838 -1.33799e-05 0.0230169 -0.20524)
(2.43739e-07 1.6555e-06 -3.39729e-07 1.17903e-06 -0.0103016 0.000375271 -4.48154e-06 0.0230185 -0.205236)
(-4.09183e-08 -3.21133e-07 3.10511e-07 -3.77235e-07 -0.0103272 0.000381095 1.1741e-05 0.0230323 -0.205242)
(-6.69949e-07 -2.49296e-06 -3.7502e-07 -2.80967e-06 -0.0103193 0.000376545 -1.80843e-05 0.0230185 -0.205242)
(-2.02168e-07 -1.81065e-06 3.08116e-08 -2.09639e-06 -0.0103053 0.000367434 -7.81195e-06 0.0230233 -0.205238)
(-1.03802e-06 -7.7008e-07 9.4636e-07 -9.97069e-07 -0.0103158 0.000376974 2.02297e-06 0.0229302 -0.20523)
(-1.09189e-06 5.71008e-06 -1.27286e-06 3.91839e-06 -0.0103227 0.000373136 -2.35371e-05 0.022945 -0.205214)
(-6.07043e-07 2.26204e-06 -6.75441e-07 3.64742e-06 -0.0103204 0.000379126 -2.71942e-05 0.0231516 -0.205255)
(-1.84796e-06 -1.48603e-06 -9.3681e-08 -1.22307e-06 -0.0103194 0.000376707 -4.5897e-05 0.0230226 -0.205247)
(-1.31694e-06 3.73085e-06 -2.15653e-06 3.03898e-07 -0.0103119 0.000372659 -6.02153e-05 0.023044 -0.205239)
(-3.69635e-06 -2.46285e-06 2.56733e-06 -2.63319e-07 -0.0103074 0.000376412 -4.25865e-05 0.0230788 -0.205239)
(-3.70184e-05 -1.15049e-05 7.0302e-06 -6.03254e-06 -0.0103238 0.000378555 -0.000103151 0.0229433 -0.205209)
(-0.00027976 -6.97259e-05 -0.000105984 -3.84215e-05 -0.0103022 0.000369139 -0.000453348 0.0229505 -0.205114)
(-0.00209844 -0.000297531 -0.000982682 -0.000173749 -0.0101068 0.000356981 -0.00286994 0.0222784 -0.205464)
(-0.0187997 -0.00026762 0.00512038 -0.000627506 -0.00930096 0.000151069 -0.0237021 0.01983 -0.207527)
(-0.0903989 0.00186538 0.118769 -0.00379717 -0.00882898 0.00124099 -0.225574 0.0192626 -0.150975)
(-0.0914224 -0.00121523 -0.120654 0.00244086 -0.00556981 0.000651796 0.229168 0.012148 -0.150947)
(-0.019088 0.000170021 -0.00519253 0.000452012 -0.0057706 -5.21656e-05 0.0242929 0.0123493 -0.208324)
(-0.00214872 0.00021148 0.00100037 0.000132798 -0.00638046 7.43473e-05 0.00303485 0.0141545 -0.206272)
(-0.000293699 5.30444e-05 0.000107617 3.03233e-05 -0.00653893 9.13208e-05 0.000470207 0.0145593 -0.205944)
(-3.99791e-05 7.20942e-06 -4.75052e-06 3.64384e-06 -0.00656048 8.97291e-05 0.000115255 0.0146365 -0.206009)
(-5.37794e-06 1.84731e-06 -2.64473e-06 2.26313e-07 -0.00655925 9.83517e-05 5.83768e-05 0.0146325 -0.206043)
(-1.42564e-06 -2.24537e-06 4.52442e-07 -1.73297e-06 -0.00655368 9.15659e-05 4.48245e-05 0.0147302 -0.206052)
(-1.51666e-06 -2.8539e-06 1.03428e-06 -1.29081e-06 -0.00654717 9.08519e-05 3.25159e-05 0.0146121 -0.206045)
(-8.8245e-07 2.02532e-06 -2.13614e-07 1.18071e-06 -0.00655303 9.58059e-05 2.40394e-05 0.0146206 -0.206045)
(-6.40793e-07 -2.49561e-08 -2.17974e-07 -4.7909e-07 -0.0065398 9.25049e-05 2.12351e-05 0.0147104 -0.20605)
(-1.29856e-06 -1.72501e-06 -1.76363e-08 -2.65652e-06 -0.00655099 9.13396e-05 1.4455e-05 0.0146212 -0.206043)
(-3.97301e-07 1.82187e-06 -2.44514e-07 9.85548e-07 -0.00653535 8.62016e-05 -7.12568e-06 0.0146368 -0.206039)
(6.73104e-07 4.71545e-07 4.60565e-07 1.80965e-06 -0.00652873 8.99853e-05 4.95638e-06 0.0147205 -0.206041)
(-4.41539e-07 -3.28803e-06 9.5799e-07 -1.43615e-06 -0.00655065 9.17848e-05 1.88847e-05 0.0146224 -0.20604)
(-9.67241e-07 1.07513e-06 -2.22241e-07 7.97757e-07 -0.00654805 8.84938e-05 4.59076e-07 0.0146097 -0.206041)
(-6.5798e-08 1.1761e-06 -2.44955e-09 1.07819e-06 -0.00654105 9.08564e-05 -3.36076e-06 0.014709 -0.206047)
(-2.56894e-07 -2.22892e-06 2.42397e-07 -1.59783e-06 -0.00655063 9.14351e-05 -2.73796e-06 0.0146199 -0.206042)
(-7.21712e-07 -7.18964e-07 -7.90704e-07 -1.7496e-06 -0.00654668 8.98115e-05 -5.55391e-06 0.0146114 -0.206041)
(-4.51626e-07 -2.34943e-07 -4.87862e-07 -7.01976e-07 -0.00654036 8.84356e-05 -2.21965e-05 0.0146331 -0.20604)
(-3.84407e-07 -1.29278e-06 2.95505e-07 -1.25504e-06 -0.00653097 8.67048e-05 -2.66546e-05 0.0146098 -0.206034)
(-2.95359e-07 2.67714e-06 -5.80361e-07 2.26598e-06 -0.0065274 8.22258e-05 -7.33103e-06 0.0145453 -0.20603)
(-9.36337e-07 1.55206e-06 2.18409e-07 3.01969e-06 -0.00655813 9.46924e-05 -1.07611e-05 0.014633 -0.206045)
(-2.17498e-06 1.10371e-06 -3.2188e-09 6.45364e-07 -0.00654668 9.0968e-05 -3.24462e-05 0.0146146 -0.206046)
(-1.66265e-06 4.98696e-06 -1.9681e-06 2.35743e-06 -0.00654708 9.22585e-05 -5.89752e-05 0.0147248 -0.206051)
(-4.37062e-06 -2.61226e-06 1.99058e-06 -8.97599e-07 -0.00654295 9.57821e-05 -6.9447e-05 0.0147378 -0.206043)
(-3.98106e-05 -1.11003e-05 6.04228e-06 -7.30983e-06 -0.00653511 8.91848e-05 -9.53161e-05 0.0146166 -0.206011)
(-0.000294298 -5.14366e-05 -0.000107121 -2.88616e-05 -0.00653388 8.23841e-05 -0.000457765 0.0145747 -0.205934)
(-0.00214909 -0.000210612 -0.000999112 -0.000130902 -0.00638475 7.68925e-05 -0.00304049 0.0141533 -0.206263)
(-0.0190871 -0.000168928 0.00519151 -0.000451974 -0.00577279 -5.27672e-05 -0.0243004 0.012348 -0.2083)
(-0.0914189 0.00122082 0.120645 -0.00244907 -0.00557407 0.000656176 -0.229154 0.0121615 -0.150952)
(-0.0920495 -0.000750062 -0.121813 0.00148948 -0.00351665 0.000379621 0.231379 0.00765037 -0.150972)
(-0.0192634 0.000106659 -0.00523683 0.00030245 -0.00357562 -5.20881e-05 0.0246911 0.00768274 -0.208848)
(-0.00218286 0.000145882 0.00101137 9.81637e-05 -0.004029 2.80258e-05 0.0031538 0.00885536 -0.206797)
(-0.000304734 3.85583e-05 0.000108978 2.28491e-05 -0.00414044 3.64067e-05 0.000497472 0.00921112 -0.206481)
(-4.25416e-05 5.41924e-06 -4.34498e-06 3.14435e-06 -0.00415808 3.61027e-05 0.000116436 0.00926802 -0.206563)
(-5.86068e-06 1.26646e-06 -2.32494e-06 4.95771e-07 -0.00415663 3.875e-05 5.79932e-05 0.00926732 -0.206582)
(-1.55415e-06 -1.31906e-06 -1.01401e-08 -1.3087e-06 -0.00416188 4.11817e-05 4.32427e-05 0.00927348 -0.206587)
(-1.27158e-06 -1.67725e-06 1.00921e-06 -7.94574e-07 -0.00414902 3.58409e-05 3.2263e-05 0.00925468 -0.206586)
(-8.48381e-07 1.31731e-06 6.34897e-08 4.62528e-07 -0.00415231 3.78284e-05 2.48887e-05 0.00925934 -0.206584)
(-1.02913e-06 8.63606e-08 -6.24004e-08 -4.65171e-07 -0.00415579 3.89983e-05 2.07747e-05 0.00926698 -0.206571)
(-1.01081e-06 -1.71112e-07 -1.04987e-06 -9.23316e-07 -0.00415153 3.959e-05 -4.77948e-07 0.0092606 -0.206582)
(1.3342e-07 2.79471e-06 -7.54632e-07 1.88052e-06 -0.00414014 3.46991e-05 7.28358e-06 0.00926809 -0.206577)
(1.46842e-07 -6.05699e-07 1.2363e-06 5.88716e-07 -0.00415237 3.74728e-05 1.92529e-05 0.00935841 -0.206586)
(-6.28711e-07 -4.12951e-06 6.99757e-07 -2.62972e-06 -0.00415091 3.59968e-05 4.29658e-06 0.00926238 -0.206581)
(-5.75367e-07 5.46479e-07 -2.32404e-07 1.20713e-07 -0.00415316 3.51741e-05 6.10183e-07 0.00925146 -0.206582)
(-2.35378e-07 1.13889e-06 2.4853e-07 1.13067e-06 -0.00415539 3.64358e-05 -2.54472e-06 0.00926746 -0.206571)
(-6.06476e-07 -1.44635e-06 1.0153e-07 -9.02972e-07 -0.00415049 3.55994e-05 -3.59596e-06 0.00926041 -0.206584)
(-4.90778e-07 -4.39005e-07 -9.74931e-07 -1.60609e-06 -0.00414953 3.3728e-05 -1.93486e-05 0.00925496 -0.206582)
(-1.03256e-07 1.33149e-06 -5.90528e-07 6.84814e-07 -0.0041374 3.38514e-05 -8.67377e-06 0.00919848 -0.206558)
(-4.44432e-07 1.82114e-06 -2.95596e-07 1.68539e-06 -0.00414746 3.46089e-05 -1.35538e-05 0.00933961 -0.206584)
(-2.36941e-07 2.77566e-07 3.24671e-07 8.05143e-07 -0.00413048 3.10462e-05 -1.93768e-05 0.0093509 -0.206584)
(-9.31166e-07 -1.59303e-06 1.073e-06 1.02892e-07 -0.00415565 4.06209e-05 -9.68102e-06 0.00926762 -0.206583)
(-1.98041e-06 7.24378e-07 -5.80452e-07 4.454e-07 -0.00414881 3.6461e-05 -3.20822e-05 0.00925714 -0.206586)
(-1.62553e-06 4.47651e-06 -1.1937e-06 2.86301e-06 -0.00415905 3.91346e-05 -4.39608e-05 0.00927223 -0.206586)
(-5.62981e-06 -6.98929e-08 1.95258e-06 5.08422e-07 -0.00416166 4.33578e-05 -5.60689e-05 0.00936571 -0.206584)
(-4.26112e-05 -9.69166e-06 4.3506e-06 -7.16648e-06 -0.00414688 3.54364e-05 -0.000127446 0.00934371 -0.206562)
(-0.000304478 -3.9653e-05 -0.000108443 -2.3772e-05 -0.00412999 3.04788e-05 -0.00049835 0.00914323 -0.206465)
(-0.00218306 -0.000145312 -0.00100971 -9.63402e-05 -0.00403185 2.73906e-05 -0.00314396 0.00885338 -0.206789)
(-0.0192634 -0.000105484 0.00523624 -0.000301731 -0.00357638 -5.63731e-05 -0.0246948 0.00768243 -0.208844)
(-0.0920481 0.000754674 0.12181 -0.00149577 -0.00351724 0.000384054 -0.231375 0.00765902 -0.150975)
(-0.0924349 -0.000447098 -0.122503 0.000880412 -0.00222696 0.000234934 0.232696 0.00480033 -0.150996)
(-0.0193663 6.75514e-05 -0.00526284 0.00019268 -0.00222357 -2.552e-05 0.0249481 0.00477935 -0.20917)
(-0.00220464 9.85166e-05 0.00101807 7.0542e-05 -0.00254217 2.49002e-05 0.00324035 0.00556001 -0.207128)
(-0.000312703 2.72284e-05 0.000109233 1.67374e-05 -0.00262721 2.78001e-05 0.000518394 0.00581402 -0.206818)
(-4.44498e-05 3.97145e-06 -4.28187e-06 2.47279e-06 -0.00264513 2.68853e-05 0.000121221 0.00585808 -0.206892)
(-6.26855e-06 1.08678e-06 -1.62892e-06 9.25402e-07 -0.0026405 2.78704e-05 5.77739e-05 0.00585594 -0.206922)
(-1.68371e-06 -7.23951e-07 -1.2938e-07 -8.41279e-07 -0.00264312 3.20656e-05 4.20381e-05 0.0058582 -0.206925)