/*--------------------------------*- C++ -*----------------------------------*\
| =========                 |                                                 |
| \\      /  F ield         | OpenFOAM: The Open Source CFD Toolbox           |
|  \\    /   O peration     | Version:  2106                                  |
|   \\  /    A nd           | Website:  www.openfoam.com                      |
|    \\/     M anipulation  |                                                 |
\*---------------------------------------------------------------------------*/
FoamFile
{
    version     2.0;
    format      ascii;
    arch        "LSB;label=32;scalar=64";
    class       volVectorField;
    location    "869";
    object      D;
}
// * * * * * * * * * * * * * * * * * * * * * * * * * * * * * * * * * * * * * //

dimensions      [0 1 0 0 0 0 0];

internalField   nonuniform List<vector> 
9000
(
(1.14009e-05 2.08533e-05 3.13265e-06)
(1.3249e-06 2.19596e-05 8.18186e-08)
(2.18761e-07 2.33117e-05 1.22928e-06)
(3.86805e-08 2.36143e-05 1.44269e-06)
(4.70145e-09 2.36232e-05 1.44576e-06)
(1.78886e-09 2.35884e-05 1.42375e-06)
(2.12297e-09 2.36077e-05 1.43564e-06)
(9.27764e-10 2.35875e-05 1.42354e-06)
(2.16808e-09 2.3587e-05 1.42308e-06)
(3.18871e-10 2.36141e-05 1.44048e-06)
(-2.19875e-09 2.35985e-05 1.42892e-06)
(1.93721e-09 2.3571e-05 1.41071e-06)
(3.04151e-09 2.36102e-05 1.43809e-06)
(-1.12431e-09 2.36111e-05 1.43828e-06)
(1.35879e-10 2.36022e-05 1.43087e-06)
(1.15843e-09 2.36152e-05 1.44093e-06)
(-1.61968e-09 2.36109e-05 1.43809e-06)
(-2.88633e-10 2.36028e-05 1.4313e-06)
(-1.61777e-09 2.36118e-05 1.43911e-06)
(-1.73296e-09 2.3573e-05 1.4125e-06)
(1.48775e-09 2.35844e-05 1.42141e-06)
(1.13699e-10 2.36128e-05 1.43954e-06)
(-2.29823e-09 2.36151e-05 1.44112e-06)
(-2.20025e-09 2.35897e-05 1.42489e-06)
(-2.21659e-09 2.36104e-05 1.43836e-06)
(-7.36084e-09 2.35978e-05 1.42948e-06)
(-3.81309e-08 2.35957e-05 1.42941e-06)
(-2.17043e-07 2.33053e-05 1.22528e-06)
(-1.32475e-06 2.19591e-05 8.15462e-08)
(-1.1401e-05 2.08522e-05 3.13211e-06)
(1.10743e-05 1.2564e-05 -5.84693e-06)
(1.2225e-06 1.31887e-05 -9.25912e-06)
(1.4279e-07 1.40062e-05 -8.68762e-06)
(2.10219e-08 1.42109e-05 -8.60731e-06)
(5.16863e-09 1.42169e-05 -8.60818e-06)
(2.79182e-09 1.41994e-05 -8.60651e-06)
(2.20164e-09 1.42058e-05 -8.60991e-06)
(1.42109e-09 1.41996e-05 -8.60569e-06)
(1.23079e-09 1.41991e-05 -8.60596e-06)
(9.2814e-10 1.42096e-05 -8.60941e-06)
(4.34862e-10 1.42062e-05 -8.60728e-06)
(6.23131e-10 1.41956e-05 -8.60353e-06)
(4.90555e-10 1.42065e-05 -8.6098e-06)
(-1.01164e-10 1.42054e-05 -8.60885e-06)
(-4.25921e-11 1.42088e-05 -8.60723e-06)
(-2.18962e-11 1.42105e-05 -8.60937e-06)
(-2.95477e-10 1.42053e-05 -8.60888e-06)
(-1.84134e-10 1.42091e-05 -8.60717e-06)
(-4.13722e-10 1.42082e-05 -8.60949e-06)
(-6.92487e-10 1.4197e-05 -8.60349e-06)
(-9.36448e-10 1.41976e-05 -8.60545e-06)
(-1.21428e-09 1.4208e-05 -8.61012e-06)
(-1.55806e-09 1.42104e-05 -8.60936e-06)
(-1.94205e-09 1.42007e-05 -8.6058e-06)
(-2.58306e-09 1.42063e-05 -8.61016e-06)
(-5.36881e-09 1.42075e-05 -8.6044e-06)
(-2.10532e-08 1.42053e-05 -8.6052e-06)
(-1.42828e-07 1.39996e-05 -8.68764e-06)
(-1.22262e-06 1.31883e-05 -9.2591e-06)
(-1.10743e-05 1.25628e-05 -5.84719e-06)
(1.11451e-05 7.77714e-06 -7.41059e-06)
(1.21846e-06 8.20001e-06 -1.09328e-05)
(1.29708e-07 8.7472e-06 -1.04557e-05)
(1.54769e-08 8.89421e-06 -1.04013e-05)
(5.31381e-09 8.90015e-06 -1.04033e-05)
(3.13296e-09 8.89471e-06 -1.04005e-05)
(2.2151e-09 8.89172e-06 -1.04036e-05)
(1.81103e-09 8.89702e-06 -1.04005e-05)
(7.08146e-10 8.89633e-06 -1.04008e-05)
(8.17901e-10 8.89482e-06 -1.04035e-05)
(1.50112e-09 8.89236e-06 -1.04027e-05)
(3.16704e-10 8.89426e-06 -1.03991e-05)
(-7.8687e-10 8.8912e-06 -1.04021e-05)
(8.72767e-11 8.89509e-06 -1.04018e-05)
(1.1978e-10 8.8944e-06 -1.04029e-05)
(-5.42752e-10 8.89552e-06 -1.04036e-05)
(3.65297e-11 8.89509e-06 -1.04019e-05)
(1.51134e-10 8.89443e-06 -1.04029e-05)
(2.34827e-10 8.89395e-06 -1.04032e-05)
(-1.26238e-10 8.89522e-06 -1.03996e-05)
(-1.83866e-09 8.89592e-06 -1.03997e-05)
(-1.94185e-09 8.89211e-06 -1.04031e-05)
(-1.11119e-09 8.89555e-06 -1.04036e-05)
(-1.84706e-09 8.89689e-06 -1.04011e-05)
(-2.67269e-09 8.89066e-06 -1.04032e-05)
(-4.50761e-09 8.90254e-06 -1.04001e-05)
(-1.61414e-08 8.89049e-06 -1.04001e-05)
(-1.30356e-07 8.74564e-06 -1.04539e-05)
(-1.2185e-06 8.19981e-06 -1.09326e-05)
(-1.1145e-05 7.77552e-06 -7.41106e-06)
(1.15307e-05 4.89016e-06 -7.09794e-06)
(1.26088e-06 5.15977e-06 -1.0743e-05)
(1.42492e-07 5.5574e-06 -1.02383e-05)
(1.66273e-08 5.66389e-06 -1.018e-05)
(4.83415e-09 5.66962e-06 -1.01823e-05)
(3.10104e-09 5.66625e-06 -1.01821e-05)
(2.32055e-09 5.66253e-06 -1.01824e-05)
(1.69335e-09 5.66732e-06 -1.01835e-05)
(9.06323e-10 5.66569e-06 -1.01827e-05)
(9.80957e-10 5.66608e-06 -1.01823e-05)
(1.40523e-09 5.6642e-06 -1.01823e-05)
(1.34226e-10 5.66529e-06 -1.01824e-05)
(-5.92854e-10 5.66565e-06 -1.01811e-05)
(2.84741e-10 5.671e-06 -1.01821e-05)
(1.16513e-11 5.66615e-06 -1.01822e-05)
(-4.429e-10 5.6667e-06 -1.01825e-05)
(4.56399e-11 5.67096e-06 -1.01823e-05)
(1.18945e-10 5.66613e-06 -1.01822e-05)
(5.12388e-11 5.66546e-06 -1.01816e-05)
(-3.38472e-10 5.66614e-06 -1.01831e-05)
(-1.78754e-09 5.66659e-06 -1.01826e-05)
(-1.8181e-09 5.66572e-06 -1.01815e-05)
(-1.15271e-09 5.66684e-06 -1.01825e-05)
(-2.02351e-09 5.66585e-06 -1.01834e-05)
(-2.63427e-09 5.66345e-06 -1.01812e-05)
(-4.09791e-09 5.67097e-06 -1.01828e-05)
(-1.69705e-08 5.66141e-06 -1.01794e-05)
(-1.43163e-07 5.56054e-06 -1.02373e-05)
(-1.26113e-06 5.15971e-06 -1.07428e-05)
(-1.15301e-05 4.88772e-06 -7.09775e-06)
(1.20056e-05 3.08831e-06 -6.68531e-06)
(1.31975e-06 3.23565e-06 -1.04719e-05)
(1.60877e-07 3.53283e-06 -9.93139e-06)
(1.98235e-08 3.61011e-06 -9.86561e-06)
(4.63924e-09 3.61481e-06 -9.86754e-06)
(2.74946e-09 3.61726e-06 -9.86871e-06)
(2.3365e-09 3.61104e-06 -9.86822e-06)
(1.58755e-09 3.61406e-06 -9.86904e-06)
(1.08804e-09 3.61413e-06 -9.86856e-06)
(1.20356e-09 3.61289e-06 -9.868e-06)
(1.12897e-09 3.61109e-06 -9.86793e-06)
(2.27793e-10 3.6124e-06 -9.86838e-06)
(-3.42918e-10 3.61536e-06 -9.86859e-06)
(2.63887e-10 3.61644e-06 -9.86939e-06)
(5.30975e-11 3.61342e-06 -9.86813e-06)
(-4.10402e-10 3.61341e-06 -9.8685e-06)
(-1.10977e-11 3.61633e-06 -9.8695e-06)
(1.21614e-10 3.61341e-06 -9.86814e-06)
(-1.85608e-10 3.61243e-06 -9.86737e-06)
(-5.52945e-10 3.6131e-06 -9.86886e-06)
(-1.45527e-09 3.61356e-06 -9.86843e-06)
(-1.569e-09 3.61481e-06 -9.86807e-06)
(-1.47165e-09 3.61393e-06 -9.86834e-06)
(-2.19128e-09 3.61402e-06 -9.86894e-06)
(-2.40149e-09 3.61409e-06 -9.86814e-06)
(-4.04978e-09 3.61619e-06 -9.8682e-06)
(-2.01098e-08 3.60821e-06 -9.8653e-06)
(-1.61356e-07 3.53446e-06 -9.93218e-06)
(-1.3201e-06 3.23565e-06 -1.04717e-05)
(-1.20041e-05 3.08795e-06 -6.68505e-06)
(1.24202e-05 1.94912e-06 -6.45413e-06)
(1.37751e-06 2.01604e-06 -1.03624e-05)
(1.77603e-07 2.23316e-06 -9.79613e-06)
(2.32516e-08 2.2923e-06 -9.72608e-06)
(4.84255e-09 2.29788e-06 -9.72805e-06)
(2.59237e-09 2.3004e-06 -9.73018e-06)
(2.20323e-09 2.29661e-06 -9.72911e-06)
(1.66956e-09 2.2964e-06 -9.72913e-06)
(1.09676e-09 2.29826e-06 -9.7294e-06)
(9.998e-10 2.29478e-06 -9.72863e-06)
(9.50586e-10 2.29533e-06 -9.72876e-06)
(3.3941e-10 2.29432e-06 -9.72837e-06)
(-8.91127e-11 2.29603e-06 -9.72985e-06)
(3.47758e-10 2.29775e-06 -9.72936e-06)
(4.72127e-11 2.29589e-06 -9.72869e-06)
(-3.46568e-10 2.29506e-06 -9.72874e-06)
(-4.35536e-11 2.29763e-06 -9.7294e-06)
(-2.12009e-11 2.29592e-06 -9.72874e-06)
(-3.45666e-10 2.29421e-06 -9.7281e-06)
(-5.91993e-10 2.29531e-06 -9.72914e-06)
(-1.39638e-09 2.2957e-06 -9.72866e-06)
(-1.38828e-09 2.29773e-06 -9.72979e-06)
(-1.30001e-09 2.29637e-06 -9.72896e-06)
(-2.32193e-09 2.29741e-06 -9.72891e-06)
(-2.40284e-09 2.29813e-06 -9.73023e-06)
(-4.20125e-09 2.29728e-06 -9.72833e-06)
(-2.36752e-08 2.29004e-06 -9.72518e-06)
(-1.77885e-07 2.23404e-06 -9.79685e-06)
(-1.37767e-06 2.01607e-06 -1.03621e-05)
(-1.24184e-05 1.95094e-06 -6.45429e-06)
(1.27244e-05 1.22829e-06 -6.34382e-06)
(1.4254e-06 1.25134e-06 -1.03402e-05)
(1.90936e-07 1.40759e-06 -9.75745e-06)
(2.65422e-08 1.45111e-06 -9.68503e-06)
(5.12008e-09 1.45732e-06 -9.68683e-06)
(2.33685e-09 1.45743e-06 -9.68893e-06)
(2.10702e-09 1.45724e-06 -9.68871e-06)
(1.66371e-09 1.45492e-06 -9.68797e-06)
(9.64741e-10 1.456e-06 -9.68861e-06)
(1.02411e-09 1.45476e-06 -9.68815e-06)
(7.82247e-10 1.45573e-06 -9.68806e-06)
(1.21941e-10 1.45403e-06 -9.68805e-06)
(2.6053e-10 1.45463e-06 -9.68841e-06)
(5.21163e-10 1.45567e-06 -9.68795e-06)
(-8.67143e-11 1.45445e-06 -9.68773e-06)
(-2.63429e-10 1.45476e-06 -9.68798e-06)
(3.4125e-11 1.45556e-06 -9.68796e-06)
(-3.29573e-10 1.45452e-06 -9.68777e-06)
(-4.61148e-10 1.45386e-06 -9.6882e-06)
(-4.92852e-10 1.45333e-06 -9.68776e-06)
(-1.1487e-09 1.45339e-06 -9.68758e-06)
(-1.19741e-09 1.45716e-06 -9.68859e-06)
(-1.51665e-09 1.45495e-06 -9.68799e-06)
(-2.36392e-09 1.45624e-06 -9.68863e-06)
(-2.26005e-09 1.45748e-06 -9.68943e-06)
(-4.63744e-09 1.4546e-06 -9.68689e-06)
(-2.67636e-08 1.4498e-06 -9.68469e-06)
(-1.90995e-07 1.40809e-06 -9.75753e-06)
(-1.42555e-06 1.25136e-06 -1.03398e-05)
(-1.27232e-05 1.2296e-06 -6.34452e-06)
(1.29255e-05 7.73054e-07 -6.28834e-06)
(1.46119e-06 7.7624e-07 -1.03426e-05)
(2.01082e-07 8.86501e-07 -9.74942e-06)
(2.88539e-08 9.1729e-07 -9.67564e-06)
(5.39032e-09 9.21882e-07 -9.67765e-06)
(2.34135e-09 9.22107e-07 -9.67886e-06)
(1.98674e-09 9.23121e-07 -9.67948e-06)
(1.5478e-09 9.20599e-07 -9.67859e-06)
(1.06e-09 9.21187e-07 -9.67881e-06)
(9.98874e-10 9.21901e-07 -9.67874e-06)
(6.22602e-10 9.21113e-07 -9.67895e-06)
(9.08634e-11 9.2074e-07 -9.6788e-06)
(3.52203e-10 9.22348e-07 -9.67915e-06)
(5.2335e-10 9.21049e-07 -9.67846e-06)
(-1.16218e-11 9.20142e-07 -9.67849e-06)
(-1.82996e-10 9.21776e-07 -9.67862e-06)
(-9.81735e-11 9.20943e-07 -9.67849e-06)
(-4.03671e-10 9.20256e-07 -9.67845e-06)
(-6.24157e-10 9.20415e-07 -9.67902e-06)
(-7.28513e-10 9.2012e-07 -9.67879e-06)
(-8.79467e-10 9.1959e-07 -9.67883e-06)
(-9.00954e-10 9.21935e-07 -9.67916e-06)
(-1.46685e-09 9.2067e-07 -9.67865e-06)
(-2.28762e-09 9.22727e-07 -9.67914e-06)
(-2.43884e-09 9.24047e-07 -9.67996e-06)
(-5.01302e-09 9.20987e-07 -9.67778e-06)
(-2.8811e-08 9.16624e-07 -9.67588e-06)
(-2.01069e-07 8.86653e-07 -9.74919e-06)
(-1.46138e-06 7.76115e-07 -1.0342e-05)
(-1.29249e-05 7.73957e-07 -6.28874e-06)
(1.305e-05 4.858e-07 -6.25684e-06)
(1.48571e-06 4.82075e-07 -1.03471e-05)
(2.08669e-07 5.56997e-07 -9.74746e-06)
(3.0597e-08 5.79381e-07 -9.67276e-06)
(5.61166e-09 5.82719e-07 -9.67477e-06)
(2.37474e-09 5.83011e-07 -9.67571e-06)
(1.89e-09 5.83582e-07 -9.67639e-06)
(1.4905e-09 5.82119e-07 -9.67574e-06)
(1.11827e-09 5.82444e-07 -9.67573e-06)
(9.66527e-10 5.82971e-07 -9.67571e-06)
(4.18865e-10 5.82437e-07 -9.67577e-06)
(2.4715e-10 5.82849e-07 -9.67646e-06)
(5.10377e-10 5.84336e-07 -9.67631e-06)
(3.29139e-10 5.82426e-07 -9.67559e-06)
(1.74272e-11 5.81553e-07 -9.67583e-06)
(-1.06968e-10 5.82804e-07 -9.67576e-06)
(-1.83361e-10 5.82339e-07 -9.67564e-06)
(-5.76341e-10 5.8181e-07 -9.67569e-06)
(-5.51821e-10 5.81999e-07 -9.67631e-06)
(-6.60918e-10 5.82716e-07 -9.6761e-06)
(-8.4955e-10 5.83242e-07 -9.67651e-06)
(-7.94679e-10 5.8293e-07 -9.67587e-06)
(-1.43457e-09 5.82218e-07 -9.67576e-06)
(-2.05098e-09 5.83464e-07 -9.67624e-06)
(-2.3795e-09 5.85262e-07 -9.67656e-06)
(-5.62067e-09 5.83423e-07 -9.67489e-06)
(-3.06283e-08 5.78774e-07 -9.67361e-06)
(-2.08473e-07 5.56933e-07 -9.7472e-06)
(-1.48586e-06 4.81789e-07 -1.03468e-05)
(-1.30499e-05 4.86533e-07 -6.25692e-06)
(1.31242e-05 3.04272e-07 -6.23763e-06)
(1.50155e-06 2.99596e-07 -1.03495e-05)
(2.14191e-07 3.49392e-07 -9.7456e-06)
(3.19116e-08 3.65318e-07 -9.67069e-06)
(5.81652e-09 3.67553e-07 -9.67273e-06)
(2.41689e-09 3.67983e-07 -9.6736e-06)
(1.82411e-09 3.68304e-07 -9.67388e-06)
(1.44119e-09 3.67475e-07 -9.67369e-06)
(1.12216e-09 3.67667e-07 -9.67366e-06)
(9.37739e-10 3.67927e-07 -9.67343e-06)
(4.90622e-10 3.67686e-07 -9.67357e-06)
(3.41151e-10 3.68855e-07 -9.67407e-06)
(4.35543e-10 3.68834e-07 -9.67404e-06)
(1.68208e-10 3.67702e-07 -9.67355e-06)
(3.52013e-12 3.66494e-07 -9.6737e-06)
(-1.51668e-11 3.67835e-07 -9.67365e-06)
(-2.20729e-10 3.67664e-07 -9.67361e-06)
(-6.3278e-10 3.67114e-07 -9.67385e-06)
(-5.30013e-10 3.68905e-07 -9.67441e-06)
(-5.03837e-10 3.67246e-07 -9.67406e-06)
(-7.7296e-10 3.68979e-07 -9.67459e-06)
(-8.87792e-10 3.67962e-07 -9.67363e-06)
(-1.41066e-09 3.67596e-07 -9.67368e-06)
(-1.90259e-09 3.68293e-07 -9.67382e-06)
(-2.36895e-09 3.69275e-07 -9.67407e-06)
(-5.97726e-09 3.68189e-07 -9.67294e-06)
(-3.19999e-08 3.6606e-07 -9.67171e-06)
(-2.13941e-07 3.49172e-07 -9.74545e-06)
(-1.50166e-06 2.99367e-07 -1.03494e-05)
(-1.31245e-05 3.0509e-07 -6.23743e-06)
(1.31675e-05 1.88933e-07 -6.22542e-06)
(1.51142e-06 1.85659e-07 -1.03504e-05)
(2.18088e-07 2.18094e-07 -9.74405e-06)
(3.28379e-08 2.29139e-07 -9.66896e-06)
(5.9487e-09 2.30069e-07 -9.67109e-06)
(2.50866e-09 2.30988e-07 -9.6719e-06)
(1.78474e-09 2.31212e-07 -9.672e-06)
(1.39685e-09 2.30753e-07 -9.672e-06)
(1.0977e-09 2.30894e-07 -9.67198e-06)
(9.07995e-10 2.31046e-07 -9.67188e-06)
(5.40693e-10 2.30848e-07 -9.67185e-06)
(4.08334e-10 2.3131e-07 -9.67244e-06)
(4.05907e-10 2.31558e-07 -9.67195e-06)
(-2.9327e-11 2.30946e-07 -9.67185e-06)
(7.59871e-13 2.30601e-07 -9.6724e-06)
(1.41274e-10 2.31073e-07 -9.6719e-06)
(-2.77486e-10 2.30952e-07 -9.67188e-06)
(-5.01533e-10 2.30035e-07 -9.67208e-06)
(-5.7464e-10 2.32621e-07 -9.67255e-06)
(-6.10283e-10 2.3107e-07 -9.67251e-06)
(-6.36452e-10 2.31069e-07 -9.67253e-06)
(-9.05613e-10 2.30932e-07 -9.67194e-06)
(-1.38491e-09 2.30886e-07 -9.67197e-06)
(-1.81024e-09 2.31239e-07 -9.67195e-06)
(-2.38171e-09 2.31752e-07 -9.67192e-06)
(-6.1188e-09 2.3101e-07 -9.67103e-06)
(-3.30257e-08 2.29506e-07 -9.6698e-06)
(-2.17933e-07 2.17648e-07 -9.74412e-06)
(-1.51143e-06 1.855e-07 -1.03504e-05)
(-1.3168e-05 1.90181e-07 -6.22535e-06)
(1.31925e-05 1.1655e-07 -6.21838e-06)
(1.51749e-06 1.13623e-07 -1.03507e-05)
(2.20744e-07 1.34224e-07 -9.74299e-06)
(3.34404e-08 1.4166e-07 -9.6677e-06)
(6.05866e-09 1.42754e-07 -9.67026e-06)
(2.6538e-09 1.42775e-07 -9.67076e-06)
(1.7692e-09 1.43003e-07 -9.67076e-06)
(1.36504e-09 1.42771e-07 -9.67079e-06)
(1.08995e-09 1.42892e-07 -9.67078e-06)
(8.81644e-10 1.4306e-07 -9.67067e-06)
(5.27898e-10 1.42715e-07 -9.67071e-06)
(4.61213e-10 1.42483e-07 -9.67088e-06)
(4.24608e-10 1.43238e-07 -9.67059e-06)
(5.56913e-12 1.42937e-07 -9.67063e-06)
(9.30056e-12 1.43294e-07 -9.67112e-06)
(8.83239e-11 1.43039e-07 -9.67057e-06)
(-4.01671e-10 1.43009e-07 -9.67056e-06)
(-4.27201e-10 1.42923e-07 -9.67118e-06)
(-3.59624e-10 1.43919e-07 -9.67109e-06)
(-7.49323e-10 1.43628e-07 -9.67114e-06)
(-7.34123e-10 1.43491e-07 -9.67124e-06)
(-8.32582e-10 1.42599e-07 -9.67089e-06)
(-1.35159e-09 1.42912e-07 -9.67073e-06)
(-1.75701e-09 1.43027e-07 -9.67069e-06)
(-2.41297e-09 1.43309e-07 -9.67057e-06)
(-6.37299e-09 1.426e-07 -9.66985e-06)
(-3.38222e-08 1.41544e-07 -9.66857e-06)
(-2.20532e-07 1.33335e-07 -9.74299e-06)
(-1.51726e-06 1.13521e-07 -1.03507e-05)
(-1.31931e-05 1.16793e-07 -6.21797e-06)
(1.32072e-05 6.94904e-08 -6.21409e-06)
(1.5208e-06 6.6907e-08 -1.03509e-05)
(2.2247e-07 7.94078e-08 -9.7423e-06)
(3.40456e-08 8.41524e-08 -9.66683e-06)
(6.11599e-09 8.52164e-08 -9.66935e-06)
(2.58296e-09 8.45382e-08 -9.67018e-06)
(1.77783e-09 8.49249e-08 -9.66999e-06)
(1.34769e-09 8.48346e-08 -9.67003e-06)
(1.09212e-09 8.49326e-08 -9.67001e-06)
(8.48012e-10 8.49921e-08 -9.66981e-06)
(4.29952e-10 8.45434e-08 -9.67014e-06)
(5.13977e-10 8.51239e-08 -9.67033e-06)
(5.19286e-10 8.51333e-08 -9.66979e-06)
(-2.67322e-11 8.49597e-08 -9.66987e-06)
(1.43921e-11 8.44185e-08 -9.67035e-06)
(1.18465e-10 8.48926e-08 -9.66968e-06)
(-2.9648e-10 8.50102e-08 -9.66966e-06)
(-3.80067e-10 8.58156e-08 -9.67014e-06)
(-4.45992e-10 8.55471e-08 -9.6699e-06)
(-6.61863e-10 8.4713e-08 -9.67031e-06)
(-7.89272e-10 8.6153e-08 -9.67002e-06)
(-9.62419e-10 8.40973e-08 -9.67007e-06)
(-1.30417e-09 8.49829e-08 -9.66988e-06)
(-1.73187e-09 8.49057e-08 -9.66994e-06)
(-2.46917e-09 8.51069e-08 -9.66979e-06)
(-6.471e-09 8.40844e-08 -9.669e-06)
(-3.44041e-08 8.52285e-08 -9.66755e-06)
(-2.22332e-07 7.93896e-08 -9.74263e-06)
(-1.52055e-06 6.67987e-08 -1.03508e-05)
(-1.32073e-05 6.89915e-08 -6.21366e-06)
(1.32152e-05 3.56527e-08 -6.21165e-06)
(1.5227e-06 3.49892e-08 -1.0351e-05)
(2.23502e-07 4.16994e-08 -9.74192e-06)
(3.43553e-08 4.42396e-08 -9.66626e-06)
(6.0824e-09 4.38443e-08 -9.66922e-06)
(2.62909e-09 4.38781e-08 -9.66971e-06)
(1.82711e-09 4.47019e-08 -9.66956e-06)
(1.34157e-09 4.4692e-08 -9.6696e-06)
(1.0724e-09 4.47597e-08 -9.66958e-06)
(7.80634e-10 4.46969e-08 -9.66951e-06)
(5.6111e-10 4.39338e-08 -9.66968e-06)
(5.86246e-10 4.56189e-08 -9.66961e-06)
(4.07241e-10 4.49032e-08 -9.66931e-06)
(-1.50199e-10 4.47913e-08 -9.66944e-06)
(-1.67232e-11 4.4752e-08 -9.67012e-06)
(2.23189e-10 4.4498e-08 -9.66948e-06)
(-2.10048e-10 4.47717e-08 -9.66932e-06)
(-3.26936e-10 4.51715e-08 -9.66973e-06)
(-5.70035e-10 4.50465e-08 -9.66925e-06)
(-6.23388e-10 4.50669e-08 -9.67e-06)
(-8.29416e-10 4.53453e-08 -9.66949e-06)
(-1.02958e-09 4.46156e-08 -9.67005e-06)
(-1.20241e-09 4.47595e-08 -9.66933e-06)
(-1.72315e-09 4.45754e-08 -9.6696e-06)
(-2.58333e-09 4.48276e-08 -9.66935e-06)
(-6.38984e-09 4.46115e-08 -9.66891e-06)
(-3.44571e-08 4.55709e-08 -9.66678e-06)
(-2.23526e-07 4.25599e-08 -9.74203e-06)
(-1.52253e-06 3.47673e-08 -1.0351e-05)
(-1.32153e-05 3.62181e-08 -6.21128e-06)
(1.32186e-05 1.13904e-08 -6.21057e-06)
(1.5237e-06 1.08477e-08 -1.0351e-05)
(2.23961e-07 1.29427e-08 -9.74177e-06)
(3.4331e-08 1.36307e-08 -9.6662e-06)
(6.01588e-09 1.32345e-08 -9.66916e-06)
(2.78191e-09 1.38927e-08 -9.66984e-06)
(1.94322e-09 1.38758e-08 -9.66938e-06)
(1.34283e-09 1.38965e-08 -9.66941e-06)
(1.05918e-09 1.39302e-08 -9.66939e-06)
(6.56858e-10 1.3906e-08 -9.6694e-06)
(6.13899e-10 1.39196e-08 -9.66981e-06)
(7.10806e-10 1.41814e-08 -9.66954e-06)
(3.69155e-10 1.3893e-08 -9.66902e-06)
(-7.00436e-11 1.39714e-08 -9.66925e-06)
(-5.71447e-11 1.44613e-08 -9.66977e-06)
(1.34512e-10 1.3502e-08 -9.66959e-06)
(-1.49181e-10 1.38952e-08 -9.66908e-06)
(-3.12277e-10 1.40447e-08 -9.66933e-06)
(-4.67287e-10 1.40131e-08 -9.66917e-06)
(-6.0605e-10 1.49078e-08 -9.66944e-06)
(-8.60535e-10 1.41495e-08 -9.66924e-06)
(-1.05737e-09 1.43952e-08 -9.66977e-06)
(-1.29429e-09 1.38753e-08 -9.66927e-06)
(-1.70067e-09 1.35257e-08 -9.6696e-06)
(-2.4757e-09 1.3939e-08 -9.66915e-06)
(-6.36252e-09 1.43993e-08 -9.66855e-06)
(-3.46309e-08 1.4165e-08 -9.6665e-06)
(-2.24143e-07 1.33924e-08 -9.74191e-06)
(-1.52342e-06 1.03193e-08 -1.03513e-05)
(-1.32187e-05 1.12454e-08 -6.21028e-06)
(1.32189e-05 -1.03623e-08 -6.21038e-06)
(1.52351e-06 -1.08965e-08 -1.0351e-05)
(2.2394e-07 -1.30519e-08 -9.74175e-06)
(3.43517e-08 -1.39821e-08 -9.66627e-06)
(6.15833e-09 -1.31147e-08 -9.66908e-06)
(2.75689e-09 -1.3143e-08 -9.66953e-06)
(1.83249e-09 -1.40352e-08 -9.66938e-06)
(1.34632e-09 -1.39982e-08 -9.6694e-06)
(1.05931e-09 -1.39795e-08 -9.66939e-06)
(7.59335e-10 -1.3966e-08 -9.66941e-06)
(6.01102e-10 -1.31845e-08 -9.66952e-06)
(5.75924e-10 -1.42216e-08 -9.66957e-06)
(3.77219e-10 -1.42608e-08 -9.66923e-06)
(-3.64569e-11 -1.39452e-08 -9.66925e-06)
(-1.13002e-10 -1.43317e-08 -9.66976e-06)
(1.08154e-10 -1.47838e-08 -9.66957e-06)
(-9.34249e-11 -1.40943e-08 -9.66921e-06)
(-2.76317e-10 -1.41234e-08 -9.66933e-06)
(-4.0988e-10 -1.39207e-08 -9.66918e-06)
(-6.08455e-10 -1.35328e-08 -9.66948e-06)
(-9.1168e-10 -1.39264e-08 -9.66924e-06)
(-1.06792e-09 -1.43892e-08 -9.66977e-06)
(-1.33426e-09 -1.40015e-08 -9.66933e-06)
(-1.69626e-09 -1.48056e-08 -9.66957e-06)
(-2.42011e-09 -1.40413e-08 -9.66915e-06)
(-6.38011e-09 -1.44982e-08 -9.66843e-06)
(-3.46281e-08 -1.41465e-08 -9.6665e-06)
(-2.24338e-07 -1.27681e-08 -9.7417e-06)
(-1.5235e-06 -1.19863e-08 -1.03511e-05)
(-1.32184e-05 -1.12888e-08 -6.21031e-06)
(1.32155e-05 -3.61765e-08 -6.21179e-06)
(1.5226e-06 -3.50753e-08 -1.0351e-05)
(2.23449e-07 -4.18704e-08 -9.74192e-06)
(3.44204e-08 -4.47644e-08 -9.66653e-06)
(6.2316e-09 -4.38538e-08 -9.66895e-06)
(2.57201e-09 -4.43859e-08 -9.66976e-06)
(1.77314e-09 -4.4859e-08 -9.66959e-06)
(1.35597e-09 -4.48119e-08 -9.66958e-06)
(1.07669e-09 -4.47744e-08 -9.66959e-06)
(8.08288e-10 -4.47434e-08 -9.66955e-06)
(5.26257e-10 -4.44537e-08 -9.66976e-06)
(4.83046e-10 -4.56317e-08 -9.66968e-06)
(4.35021e-10 -4.53069e-08 -9.6697e-06)
(-6.8504e-11 -4.47334e-08 -9.66939e-06)
(-2.10408e-10 -4.45079e-08 -9.67004e-06)
(1.65453e-10 -4.46673e-08 -9.66996e-06)
(-2.39452e-11 -4.48921e-08 -9.66947e-06)
(-2.39158e-10 -4.52658e-08 -9.66973e-06)
(-3.61468e-10 -4.48427e-08 -9.66921e-06)
(-6.27751e-10 -4.46197e-08 -9.6695e-06)
(-1.01643e-09 -4.48767e-08 -9.66943e-06)
(-1.06783e-09 -4.46e-08 -9.67006e-06)
(-1.35398e-09 -4.47669e-08 -9.66954e-06)
(-1.70853e-09 -4.47646e-08 -9.67006e-06)
(-2.41668e-09 -4.4861e-08 -9.66938e-06)
(-6.38989e-09 -4.48258e-08 -9.66889e-06)
(-3.4402e-08 -4.54777e-08 -9.66672e-06)
(-2.24113e-07 -4.15221e-08 -9.74172e-06)
(-1.52276e-06 -3.4999e-08 -1.03511e-05)
(-1.32144e-05 -3.62283e-08 -6.21138e-06)
(1.32074e-05 -6.98098e-08 -6.21387e-06)
(1.52074e-06 -6.69693e-08 -1.03509e-05)
(2.22372e-07 -7.96878e-08 -9.7424e-06)
(3.41361e-08 -8.50965e-08 -9.66708e-06)
(6.27119e-09 -8.52801e-08 -9.66918e-06)
(2.53073e-09 -8.48021e-08 -9.67e-06)
(1.74695e-09 -8.50216e-08 -9.67005e-06)
(1.36851e-09 -8.49634e-08 -9.67003e-06)
(1.11657e-09 -8.49148e-08 -9.67002e-06)
(8.33551e-10 -8.49487e-08 -9.66978e-06)
(3.66742e-10 -8.48295e-08 -9.67001e-06)
(3.90245e-10 -8.50637e-08 -9.6704e-06)
(5.64723e-10 -8.58877e-08 -9.67013e-06)
(1.36198e-10 -8.498e-08 -9.66969e-06)
(-7.27535e-11 -8.39428e-08 -9.67007e-06)
(1.72541e-11 -8.40425e-08 -9.66982e-06)
(-2.31347e-10 -8.50851e-08 -9.6699e-06)
(-2.29944e-10 -8.59202e-08 -9.67015e-06)
(-2.88577e-10 -8.52028e-08 -9.66964e-06)
(-6.31843e-10 -8.49246e-08 -9.66987e-06)
(-9.01023e-10 -8.52248e-08 -9.66986e-06)
(-1.04792e-09 -8.40835e-08 -9.67007e-06)
(-1.36206e-09 -8.48937e-08 -9.66996e-06)
(-1.71646e-09 -8.40795e-08 -9.67016e-06)
(-2.42766e-09 -8.50078e-08 -9.66984e-06)
(-6.44837e-09 -8.42516e-08 -9.66903e-06)
(-3.42288e-08 -8.51656e-08 -9.66731e-06)
(-2.22725e-07 -7.92962e-08 -9.74187e-06)
(-1.52087e-06 -6.57706e-08 -1.03509e-05)
(-1.32067e-05 -6.89755e-08 -6.21371e-06)
(1.31926e-05 -1.16738e-07 -6.21828e-06)
(1.51744e-06 -1.13616e-07 -1.03508e-05)
(2.20561e-07 -1.34674e-07 -9.74332e-06)
(3.35673e-08 -1.41743e-07 -9.66819e-06)
(6.28504e-09 -1.42718e-07 -9.67019e-06)
(2.61912e-09 -1.42914e-07 -9.67069e-06)
(1.74983e-09 -1.42978e-07 -9.67084e-06)
(1.38454e-09 -1.42877e-07 -9.67082e-06)
(1.15101e-09 -1.42842e-07 -9.67077e-06)
(8.39957e-10 -1.42987e-07 -9.67042e-06)
(4.25292e-10 -1.42901e-07 -9.6707e-06)
(2.57286e-10 -1.42273e-07 -9.67086e-06)
(4.54013e-10 -1.42975e-07 -9.67115e-06)
(3.15303e-10 -1.42995e-07 -9.67057e-06)
(9.17942e-12 -1.42424e-07 -9.6709e-06)
(-5.77081e-11 -1.42618e-07 -9.6706e-06)
(-4.09948e-10 -1.43129e-07 -9.67068e-06)
(-2.43044e-10 -1.4302e-07 -9.6712e-06)
(-1.61328e-10 -1.43189e-07 -9.67062e-06)
(-6.27241e-10 -1.42952e-07 -9.67065e-06)
(-8.51958e-10 -1.43501e-07 -9.67075e-06)
(-1.01375e-09 -1.42628e-07 -9.67085e-06)
(-1.35981e-09 -1.42852e-07 -9.67072e-06)
(-1.7302e-09 -1.42456e-07 -9.67097e-06)
(-2.44581e-09 -1.42992e-07 -9.67062e-06)
(-6.36668e-09 -1.42712e-07 -9.66991e-06)
(-3.37255e-08 -1.41415e-07 -9.6684e-06)
(-2.20743e-07 -1.34127e-07 -9.7427e-06)
(-1.51741e-06 -1.13004e-07 -1.0351e-05)
(-1.31928e-05 -1.16779e-07 -6.21797e-06)
(1.31675e-05 -1.89048e-07 -6.22541e-06)
(1.51135e-06 -1.85561e-07 -1.03503e-05)
(2.18053e-07 -2.1884e-07 -9.7443e-06)
(3.2978e-08 -2.28391e-07 -9.66913e-06)
(6.02364e-09 -2.29948e-07 -9.67112e-06)
(2.50548e-09 -2.31065e-07 -9.67189e-06)
(1.77567e-09 -2.30979e-07 -9.67208e-06)
(1.40424e-09 -2.30812e-07 -9.67205e-06)
(1.17588e-09 -2.30797e-07 -9.67197e-06)
(8.29497e-10 -2.30992e-07 -9.67156e-06)
(4.23383e-10 -2.31003e-07 -9.67189e-06)
(3.52525e-10 -2.30847e-07 -9.67216e-06)
(4.08727e-10 -2.30172e-07 -9.67204e-06)
(2.38637e-10 -2.30951e-07 -9.67186e-06)
(2.92879e-11 -2.3066e-07 -9.67198e-06)
(-1.01432e-10 -2.30855e-07 -9.67186e-06)
(-3.02435e-10 -2.31294e-07 -9.67201e-06)
(-2.38954e-10 -2.30136e-07 -9.67211e-06)
(-2.62345e-10 -2.31096e-07 -9.67196e-06)
(-6.59247e-10 -2.30975e-07 -9.67188e-06)
(-8.42854e-10 -2.32043e-07 -9.67232e-06)
(-9.55633e-10 -2.31036e-07 -9.67188e-06)
(-1.34359e-09 -2.30841e-07 -9.67194e-06)
(-1.75077e-09 -2.30619e-07 -9.67201e-06)
(-2.47311e-09 -2.31058e-07 -9.67183e-06)
(-6.12607e-09 -2.31072e-07 -9.67109e-06)
(-3.29553e-08 -2.28974e-07 -9.66935e-06)
(-2.18055e-07 -2.17811e-07 -9.74385e-06)
(-1.51154e-06 -1.85223e-07 -1.03505e-05)
(-1.3168e-05 -1.90192e-07 -6.22532e-06)
(1.31241e-05 -3.04347e-07 -6.23765e-06)
(1.50144e-06 -2.99606e-07 -1.0349e-05)
(2.14242e-07 -3.4897e-07 -9.74582e-06)
(3.2094e-08 -3.65031e-07 -9.67094e-06)
(5.79675e-09 -3.67224e-07 -9.67296e-06)
(2.47187e-09 -3.68041e-07 -9.67364e-06)
(1.82794e-09 -3.67669e-07 -9.6738e-06)
(1.42303e-09 -3.67469e-07 -9.67374e-06)
(1.18854e-09 -3.67482e-07 -9.67364e-06)
(8.04243e-10 -3.67675e-07 -9.67319e-06)
(3.94018e-10 -3.67868e-07 -9.67362e-06)
(3.88317e-10 -3.68019e-07 -9.67376e-06)
(3.96469e-10 -3.67444e-07 -9.67384e-06)
(2.17272e-10 -3.67691e-07 -9.67359e-06)
(4.10748e-11 -3.67456e-07 -9.67364e-06)
(-1.47884e-10 -3.67572e-07 -9.67364e-06)
(-2.43432e-10 -3.68362e-07 -9.67398e-06)
(-2.05136e-10 -3.67277e-07 -9.67391e-06)
(-3.06671e-10 -3.67741e-07 -9.67374e-06)
(-7.48422e-10 -3.67702e-07 -9.67358e-06)
(-8.66339e-10 -3.69689e-07 -9.67424e-06)
(-8.5285e-10 -3.6817e-07 -9.67356e-06)
(-1.30807e-09 -3.67532e-07 -9.67366e-06)
(-1.78304e-09 -3.67388e-07 -9.67364e-06)
(-2.51786e-09 -3.67942e-07 -9.67356e-06)
(-5.99164e-09 -3.68221e-07 -9.67302e-06)
(-3.1926e-08 -3.65149e-07 -9.67108e-06)
(-2.14054e-07 -3.48839e-07 -9.74527e-06)
(-1.50176e-06 -2.99205e-07 -1.03494e-05)
(-1.31246e-05 -3.05149e-07 -6.23741e-06)
(1.30499e-05 -4.8585e-07 -6.25686e-06)
(1.48574e-06 -4.82163e-07 -1.03468e-05)
(2.08725e-07 -5.5527e-07 -9.74693e-06)
(3.05858e-08 -5.79368e-07 -9.67283e-06)
(5.55199e-09 -5.82221e-07 -9.67487e-06)
(2.49095e-09 -5.83094e-07 -9.67586e-06)
(1.91513e-09 -5.82196e-07 -9.67576e-06)
(1.42792e-09 -5.82035e-07 -9.67578e-06)
(1.18021e-09 -5.82115e-07 -9.67566e-06)
(7.61731e-10 -5.82275e-07 -9.6753e-06)
(3.58805e-10 -5.82744e-07 -9.67586e-06)
(4.06675e-10 -5.83156e-07 -9.67599e-06)
(3.95422e-10 -5.8244e-07 -9.67578e-06)
(2.22694e-10 -5.82428e-07 -9.67564e-06)
(6.87608e-11 -5.82084e-07 -9.6757e-06)
(-2.22136e-10 -5.82129e-07 -9.67571e-06)
(-2.12974e-10 -5.83581e-07 -9.67596e-06)
(-1.22577e-10 -5.82081e-07 -9.6758e-06)
(-3.29716e-10 -5.82287e-07 -9.67584e-06)
(-9.28745e-10 -5.82317e-07 -9.67563e-06)
(-9.13245e-10 -5.84081e-07 -9.6764e-06)
(-6.73007e-10 -5.83318e-07 -9.67583e-06)
(-1.25539e-09 -5.8211e-07 -9.67573e-06)
(-1.83517e-09 -5.82011e-07 -9.67568e-06)
(-2.58639e-09 -5.82904e-07 -9.67576e-06)
(-5.68083e-09 -5.83471e-07 -9.67498e-06)
(-3.0441e-08 -5.78977e-07 -9.67303e-06)
(-2.08593e-07 -5.56032e-07 -9.74682e-06)
(-1.48598e-06 -4.81671e-07 -1.03469e-05)
(-1.305e-05 -4.86664e-07 -6.25701e-06)
(1.29254e-05 -7.7308e-07 -6.28835e-06)
(1.46132e-06 -7.76264e-07 -1.03425e-05)
(2.01115e-07 -8.84895e-07 -9.74893e-06)
(2.86941e-08 -9.17584e-07 -9.67571e-06)
(5.27465e-09 -9.2105e-07 -9.6777e-06)
(2.55645e-09 -9.22295e-07 -9.67914e-06)
(2.03922e-09 -9.20656e-07 -9.67844e-06)
(1.41795e-09 -9.20444e-07 -9.67862e-06)
(1.14301e-09 -9.20653e-07 -9.67858e-06)
(6.9631e-10 -9.20583e-07 -9.67849e-06)
(3.33962e-10 -9.21617e-07 -9.6791e-06)
(4.21949e-10 -9.22335e-07 -9.67937e-06)
(3.862e-10 -9.2131e-07 -9.67878e-06)
(2.42474e-10 -9.21107e-07 -9.67855e-06)
(1.21796e-10 -9.20537e-07 -9.67856e-06)
(-3.47799e-10 -9.20492e-07 -9.67855e-06)
(-1.97887e-10 -9.21156e-07 -9.6789e-06)
(3.91203e-11 -9.20583e-07 -9.67862e-06)
(-3.39407e-10 -9.20626e-07 -9.67872e-06)
(-9.52428e-10 -9.20744e-07 -9.6785e-06)
(-9.70638e-10 -9.20935e-07 -9.67917e-06)
(-6.68054e-10 -9.22588e-07 -9.67928e-06)
(-1.19323e-09 -9.20508e-07 -9.67859e-06)
(-1.91105e-09 -9.20449e-07 -9.67855e-06)
(-2.70683e-09 -9.21947e-07 -9.67904e-06)
(-5.44356e-09 -9.21063e-07 -9.67785e-06)
(-2.85052e-08 -9.17925e-07 -9.67595e-06)
(-2.00941e-07 -8.84963e-07 -9.74889e-06)
(-1.46153e-06 -7.75767e-07 -1.03424e-05)
(-1.2925e-05 -7.74194e-07 -6.28892e-06)
(1.27243e-05 -1.22829e-06 -6.34382e-06)
(1.4256e-06 -1.25135e-06 -1.03402e-05)
(1.90823e-07 -1.40763e-06 -9.75732e-06)
(2.63278e-08 -1.45185e-06 -9.68532e-06)
(4.96172e-09 -1.45582e-06 -9.68709e-06)
(2.6354e-09 -1.45778e-06 -9.68863e-06)
(2.18229e-09 -1.45487e-06 -9.68801e-06)
(1.44509e-09 -1.45473e-06 -9.68801e-06)
(1.11896e-09 -1.45518e-06 -9.68823e-06)
(5.94752e-10 -1.4546e-06 -9.68799e-06)
(2.77729e-10 -1.4565e-06 -9.68826e-06)
(4.42293e-10 -1.45768e-06 -9.68873e-06)
(3.66904e-10 -1.45623e-06 -9.68853e-06)
(2.6655e-10 -1.4558e-06 -9.68808e-06)
(1.95299e-10 -1.45489e-06 -9.68789e-06)
(-2.40171e-10 -1.45475e-06 -9.68788e-06)
(-1.77132e-10 -1.45481e-06 -9.68815e-06)
(1.30249e-11 -1.45486e-06 -9.68797e-06)
(-3.40477e-10 -1.45471e-06 -9.68784e-06)
(-8.39966e-10 -1.45506e-06 -9.68789e-06)
(-1.04342e-09 -1.45548e-06 -9.68875e-06)
(-8.35408e-10 -1.45823e-06 -9.68891e-06)
(-1.11879e-09 -1.45475e-06 -9.68792e-06)
(-2.00517e-09 -1.45474e-06 -9.68793e-06)
(-2.62918e-09 -1.45718e-06 -9.68849e-06)
(-5.23153e-09 -1.45467e-06 -9.68675e-06)
(-2.62878e-08 -1.45072e-06 -9.68515e-06)
(-1.90606e-07 -1.40727e-06 -9.75703e-06)
(-1.42585e-06 -1.25078e-06 -1.03399e-05)
(-1.27234e-05 -1.22987e-06 -6.34396e-06)
(1.242e-05 -1.9491e-06 -6.45414e-06)
(1.37754e-06 -2.01606e-06 -1.03624e-05)
(1.7743e-07 -2.23437e-06 -9.79662e-06)
(2.33636e-08 -2.29375e-06 -9.72663e-06)
(4.62613e-09 -2.2979e-06 -9.72815e-06)
(2.78062e-09 -2.29871e-06 -9.73012e-06)
(2.39356e-09 -2.296e-06 -9.72907e-06)
(1.4916e-09 -2.29621e-06 -9.7292e-06)
(1.10925e-09 -2.29712e-06 -9.72991e-06)
(3.90093e-10 -2.29567e-06 -9.72877e-06)
(1.24768e-10 -2.29643e-06 -9.72899e-06)
(4.94215e-10 -2.29834e-06 -9.72877e-06)
(3.94582e-10 -2.29849e-06 -9.72919e-06)
(2.95158e-10 -2.29793e-06 -9.72954e-06)
(2.67343e-10 -2.2965e-06 -9.72891e-06)
(-1.60795e-10 -2.29626e-06 -9.72888e-06)
(-1.35314e-10 -2.29755e-06 -9.73001e-06)