/*--------------------------------*- C++ -*----------------------------------*\
| =========                 |                                                 |
| \\      /  F ield         | OpenFOAM: The Open Source CFD Toolbox           |
|  \\    /   O peration     | Version:  2106                                  |
|   \\  /    A nd           | Website:  www.openfoam.com                      |
|    \\/     M anipulation  |                                                 |
\*---------------------------------------------------------------------------*/
FoamFile
{
    version     2.0;
    format      ascii;
    arch        "LSB;label=32;scalar=64";
    class       volSymmTensorField;
    location    "869";
    object      epsilon;
}
// * * * * * * * * * * * * * * * * * * * * * * * * * * * * * * * * * * * * * //

dimensions      [0 0 0 0 0 0 0];

internalField   nonuniform List<symmTensor> 
9000
(
(-0.0855805 -0.000263487 0.0481618 -0.147115 0.0614067 -0.0253745)
(-0.0167732 0.000537834 0.00938366 -0.156475 0.0651284 -0.0697522)
(-0.00192932 0.000335757 0.00256548 -0.166386 0.0691563 -0.0595166)
(-0.000321089 5.0635e-05 0.000451344 -0.167997 0.0700451 -0.0573947)
(-5.53375e-05 -7.949e-06 3.94483e-05 -0.168079 0.0700717 -0.057407)
(-3.86772e-06 -2.05927e-06 1.73847e-05 -0.167897 0.06986 -0.0576815)
(-1.29165e-06 -3.71304e-08 2.53292e-05 -0.168021 0.0700234 -0.057567)
(6.76624e-08 -5.91725e-06 7.64223e-06 -0.167889 0.0698611 -0.0576819)
(-9.1334e-07 6.45013e-06 3.12267e-05 -0.167887 0.0698577 -0.0576894)
(-6.55025e-06 6.62835e-06 -7.48762e-06 -0.168061 0.0700452 -0.0574712)
(2.42751e-06 -6.26634e-06 -4.90613e-05 -0.167943 0.0699279 -0.0575982)
(7.8604e-06 -5.39665e-07 3.97362e-05 -0.167761 0.0697374 -0.0578378)
(-4.59228e-06 5.45213e-06 5.89369e-05 -0.16805 0.0700332 -0.0574994)
(-4.35845e-06 8.28936e-07 -3.01843e-05 -0.168067 0.0700421 -0.057488)
(3.42411e-06 8.62981e-07 1.85633e-06 -0.167955 0.0699368 -0.0575821)
(-2.63334e-06 -1.18635e-06 3.04745e-05 -0.168064 0.0700469 -0.0574731)
(-2.17059e-06 3.39184e-07 -3.6322e-05 -0.168065 0.0700412 -0.0574928)
(2.86792e-09 7.56512e-07 -3.12858e-06 -0.167958 0.069939 -0.0575733)
(-2.16649e-06 -6.66472e-06 -2.48113e-05 -0.168052 0.0700386 -0.0574874)
(4.65827e-06 -6.37409e-06 -2.66482e-05 -0.167773 0.0697468 -0.0578018)
(2.76999e-06 5.82091e-06 3.97497e-05 -0.167874 0.069851 -0.0577147)
(-5.67897e-06 6.5393e-06 6.85426e-06 -0.16806 0.0700389 -0.0574854)
(-3.47092e-06 -5.87836e-06 -3.19322e-05 -0.168065 0.070048 -0.0574675)
(1.22456e-07 -8.09597e-07 -2.63799e-05 -0.167901 0.0698654 -0.057668)
(-7.74089e-06 1.65936e-06 -2.39715e-05 -0.168053 0.0700335 -0.0574943)
(-5.38714e-05 1.94014e-06 -9.29129e-05 -0.167913 0.0698907 -0.057604)
(-0.000314523 -4.56886e-05 -0.000439691 -0.167867 0.0699203 -0.0575375)
(-0.00192992 -0.000335534 -0.00252775 -0.166381 0.0691448 -0.0595433)
(-0.016776 -0.000536887 -0.00938198 -0.156473 0.0651273 -0.0697537)
(-0.0855798 0.000263415 -0.0481628 -0.147115 0.0614022 -0.02538)
(-0.0724033 -1.12547e-05 0.0464785 -0.0980713 0.0681821 -0.128992)
(-0.0163972 0.000682545 0.00802449 -0.103197 0.0717479 -0.175005)
(-0.00180222 0.000432683 0.00154213 -0.109234 0.0762341 -0.17132)
(-0.000206432 7.0967e-05 0.000229162 -0.1104 0.077392 -0.170637)
(-2.73451e-05 -6.32173e-06 3.20119e-05 -0.110423 0.077425 -0.170683)
(-4.45048e-06 -3.26699e-06 3.10503e-05 -0.110203 0.0773581 -0.170699)
(-2.05609e-06 5.0608e-07 2.5651e-05 -0.11037 0.0773692 -0.17071)
(-1.45628e-06 -1.71457e-06 -2.76362e-06 -0.110179 0.0773627 -0.170696)
(-7.39422e-07 2.06267e-06 3.4171e-05 -0.11018 0.0773558 -0.170702)
(-1.19389e-06 7.22222e-06 3.38243e-05 -0.110394 0.0773821 -0.170707)
(-4.57514e-07 3.32227e-06 -1.14573e-05 -0.110296 0.0775569 -0.170677)
(8.35387e-08 -5.88569e-06 4.35242e-06 -0.110076 0.0775215 -0.170667)
(-1.08644e-06 -6.98658e-06 2.37799e-05 -0.110393 0.0773645 -0.17071)
(-7.9972e-07 6.3093e-06 1.79992e-06 -0.11037 0.0772293 -0.170691)
(1.18902e-07 3.75263e-06 -1.46658e-06 -0.110309 0.0775704 -0.17068)
(-3.79327e-07 -9.01449e-06 -2.07245e-06 -0.110397 0.0773865 -0.17071)
(-2.43357e-07 5.16552e-06 -8.35877e-07 -0.110368 0.0772283 -0.170693)
(-1.77368e-07 3.80498e-06 -3.49159e-06 -0.110313 0.0775717 -0.170676)
(-7.62529e-07 -2.14996e-06 -2.46558e-05 -0.110384 0.0773724 -0.170711)
(-7.84089e-07 -1.92198e-06 -2.79319e-05 -0.110083 0.0775421 -0.170665)
(-7.82686e-07 -4.15492e-06 4.73761e-06 -0.110164 0.0773433 -0.170691)
(-9.3242e-07 1.92419e-06 5.0189e-06 -0.110405 0.0773721 -0.170713)
(-1.09166e-06 -1.08401e-06 -3.75222e-05 -0.110397 0.0773872 -0.170708)
(-1.53749e-06 -1.73822e-06 -2.27635e-05 -0.110196 0.0773657 -0.170693)
(-5.14014e-06 3.4215e-06 -2.8796e-05 -0.110398 0.0773624 -0.17071)
(-2.77052e-05 9.92986e-06 -5.05358e-05 -0.110214 0.0774081 -0.170668)
(-0.000206189 -7.34624e-05 -0.000208796 -0.110289 0.077555 -0.170606)
(-0.00180236 -0.000437656 -0.00154407 -0.109198 0.0760739 -0.171319)
(-0.0163972 -0.000679205 -0.00802709 -0.103195 0.0717459 -0.175003)
(-0.0724022 1.12282e-05 -0.046479 -0.0980749 0.068172 -0.128992)
(-0.0763045 0.00117273 0.0467452 -0.0575535 0.0581644 -0.153406)
(-0.0165232 0.000871465 0.00786427 -0.0602169 0.0606466 -0.201966)
(-0.00180447 0.000519534 0.00136747 -0.0633661 0.0647173 -0.199928)
(-0.000186592 9.82316e-05 0.000168892 -0.0641023 0.0658943 -0.199627)
(-1.85159e-05 -8.81889e-07 5.573e-05 -0.0641043 0.0659376 -0.199687)
(-4.64807e-06 -5.15969e-06 3.44787e-05 -0.0639984 0.0660471 -0.199647)
(-1.98289e-06 2.17906e-06 2.47792e-05 -0.0640744 0.0658763 -0.199696)
(-2.26042e-06 4.48006e-06 2.19452e-05 -0.063992 0.0661445 -0.199667)
(-1.4897e-06 -2.86164e-06 7.89008e-06 -0.0640004 0.0661371 -0.199671)
(1.18946e-06 -2.78204e-06 9.30173e-06 -0.0640766 0.0658973 -0.199701)
(-7.51796e-07 3.21776e-06 1.85141e-05 -0.0640651 0.065872 -0.199687)
(-3.43198e-06 -2.70035e-06 4.76656e-06 -0.0639771 0.0661184 -0.199649)
(-3.4414e-07 -3.44138e-06 -1.99257e-05 -0.0640561 0.0657869 -0.199657)
(1.35997e-06 3.84701e-06 5.91112e-07 -0.064008 0.0659 -0.199683)
(-9.45043e-07 5.2266e-07 1.20688e-05 -0.06407 0.0658881 -0.199691)
(-1.24875e-07 -1.06537e-06 -1.70306e-05 -0.0640783 0.0659032 -0.199703)
(1.04083e-06 4.63223e-07 1.64438e-07 -0.0640076 0.0658988 -0.199686)
(2.97445e-07 2.84314e-07 1.15223e-05 -0.0640722 0.0658876 -0.199691)
(-4.16059e-07 2.33409e-06 2.78851e-06 -0.0640704 0.0658874 -0.1997)
(-3.11023e-06 2.80418e-06 -9.15994e-07 -0.0639811 0.0661236 -0.199653)
(-2.72342e-06 -5.51788e-06 -2.14103e-05 -0.0639824 0.0661383 -0.199657)
(1.0912e-06 -2.54204e-06 -2.33032e-05 -0.0640674 0.0657963 -0.199683)
(1.42183e-07 5.10192e-06 -1.28786e-05 -0.0640769 0.0659044 -0.199703)
(-2.34225e-06 -3.96918e-06 -2.08527e-05 -0.0640111 0.0661442 -0.199667)
(-3.99082e-06 4.04419e-06 -2.95783e-05 -0.0640717 0.0657864 -0.199676)
(-2.02031e-05 4.63279e-06 -4.57059e-05 -0.064024 0.0661855 -0.199649)
(-0.000188773 -0.000102366 -0.00018835 -0.0640793 0.065857 -0.199609)
(-0.00180353 -0.000519264 -0.0013743 -0.063293 0.0646977 -0.199916)
(-0.0165219 -0.000872 -0.00785374 -0.0602148 0.0606447 -0.201963)
(-0.0763017 -0.00117252 -0.046745 -0.0575628 0.0581516 -0.153408)
(-0.0818776 0.00181544 0.048368 -0.0351662 0.0409083 -0.154296)
(-0.0170824 0.000880276 0.00813692 -0.0372327 0.0422663 -0.205378)
(-0.00186638 0.000494971 0.00148715 -0.0391077 0.0456081 -0.203493)
(-0.000206487 0.000100464 0.000189483 -0.0396308 0.0464867 -0.203202)
(-2.02894e-05 -7.63413e-07 4.09047e-05 -0.03964 0.0465332 -0.203268)
(-3.7704e-06 -6.75931e-06 3.50284e-05 -0.0395809 0.0464298 -0.203236)
(-2.11154e-06 1.26347e-06 3.32483e-05 -0.0396051 0.0464174 -0.203264)
(-2.12134e-06 1.5371e-06 1.89166e-05 -0.0396222 0.0465017 -0.203286)
(-1.06859e-06 4.9464e-07 1.24534e-05 -0.0396165 0.0464281 -0.203248)
(7.48367e-07 3.29998e-07 1.16954e-05 -0.0396145 0.0465012 -0.20328)
(-1.2701e-06 -1.99228e-06 1.47466e-05 -0.0396095 0.0464877 -0.203277)
(-2.99713e-06 7.51521e-07 -4.51163e-06 -0.039614 0.0464789 -0.203254)
(2.25773e-07 5.94674e-06 -3.54618e-06 -0.0395689 0.0465019 -0.20326)
(9.06758e-07 1.03611e-06 1.04536e-05 -0.0395899 0.0466667 -0.203286)
(-1.09146e-06 -3.47613e-06 -7.47679e-07 -0.0396074 0.0465019 -0.203279)
(5.09829e-08 4.1018e-06 -3.82951e-06 -0.0396158 0.0465075 -0.203284)
(8.42768e-07 -6.06262e-07 -2.55521e-07 -0.0395907 0.0466654 -0.203289)
(8.39828e-09 -4.23266e-06 -3.09594e-07 -0.0396076 0.0465016 -0.20328)
(-6.86125e-07 -1.56624e-06 -1.47075e-06 -0.0396114 0.046492 -0.203258)
(-2.75816e-06 -7.48979e-07 -5.73761e-06 -0.0396158 0.0464898 -0.20328)
(-2.21944e-06 1.1214e-06 -2.6286e-05 -0.0396177 0.0464914 -0.203261)
(9.52237e-07 1.58186e-06 -1.97534e-05 -0.0395798 0.0464961 -0.203252)
(-3.0811e-07 -1.25397e-06 -6.75354e-06 -0.0396122 0.0465102 -0.203284)
(-2.22234e-06 -3.83654e-06 -3.02376e-05 -0.0396215 0.0464323 -0.20327)
(-3.1116e-06 4.86024e-06 -3.00435e-05 -0.0395743 0.04642 -0.203228)
(-2.15044e-05 1.90943e-07 -3.45278e-05 -0.0396476 0.0465318 -0.203264)
(-0.000208597 -9.77026e-05 -0.000191108 -0.0396171 0.0464611 -0.203192)
(-0.00186624 -0.000492526 -0.00149471 -0.0390838 0.0457505 -0.203466)
(-0.0170804 -0.000885626 -0.00814057 -0.0372312 0.0422649 -0.205375)
(-0.0818818 -0.00181475 -0.0483661 -0.0351568 0.0408315 -0.154282)
(-0.0860581 0.00177845 0.0503684 -0.0220578 0.0263835 -0.152289)
(-0.0177671 0.000770769 0.00855077 -0.023578 0.0267734 -0.205729)
(-0.00194989 0.000412505 0.00165841 -0.0249318 0.0293915 -0.203766)
(-0.000234356 8.63229e-05 0.000209896 -0.025287 0.0299606 -0.203434)
(-2.5611e-05 5.39511e-06 3.99717e-05 -0.025288 0.0299507 -0.203494)
(-3.45411e-06 -4.73219e-06 2.36052e-05 -0.0252438 0.030095 -0.203526)
(-1.74286e-06 -2.84067e-06 3.21185e-05 -0.0252444 0.029918 -0.203504)
(-1.87268e-06 2.23002e-06 1.77735e-05 -0.025282 0.0299927 -0.203529)
(-5.75988e-07 -1.62101e-07 1.36916e-05 -0.0252557 0.029994 -0.203517)
(6.13887e-08 -2.21029e-06 2.11526e-05 -0.0252848 0.0299823 -0.203503)
(-1.46364e-06 -2.07412e-06 1.23266e-05 -0.0252666 0.0299215 -0.203507)
(-2.20783e-06 3.96709e-06 3.68065e-06 -0.0252823 0.0299825 -0.203512)
(5.41409e-08 4.92129e-06 -2.57574e-06 -0.0252721 0.03008 -0.203531)
(5.94023e-07 -1.21406e-06 2.28891e-06 -0.0252993 0.030008 -0.203527)
(-1.01143e-06 -2.14093e-06 7.85083e-07 -0.0252769 0.0299858 -0.203521)
(-9.62928e-08 2.54354e-06 -4.5407e-06 -0.0252873 0.0299872 -0.203522)
(7.98024e-07 -3.3046e-07 -8.98168e-07 -0.0252999 0.0300067 -0.203529)
(-2.61766e-07 -3.44878e-06 9.94023e-07 -0.0252765 0.0299856 -0.203522)
(-1.01184e-06 -1.71861e-06 -3.42561e-06 -0.0252843 0.0299806 -0.203493)
(-1.90449e-06 -1.03873e-07 -7.66701e-06 -0.0252812 0.029985 -0.203524)
(-1.52409e-06 2.74829e-06 -1.46142e-05 -0.0252817 0.0299907 -0.203519)
(-2.45722e-08 1.88419e-06 -1.73991e-05 -0.0252599 0.030031 -0.203519)
(-9.33422e-07 -1.14415e-06 -2.51883e-05 -0.0252786 0.0299907 -0.203525)
(-1.39475e-06 -9.93732e-07 -3.01902e-05 -0.0252633 0.0299899 -0.203518)
(-2.78775e-06 2.49378e-06 -1.99568e-05 -0.0252399 0.0300226 -0.203506)
(-2.65625e-05 -4.80273e-06 -3.51155e-05 -0.0253027 0.03001 -0.203503)
(-0.000235959 -8.64383e-05 -0.000211857 -0.0252853 0.0299427 -0.203423)
(-0.00194998 -0.000409628 -0.00166297 -0.0249488 0.0294053 -0.203761)
(-0.0177641 -0.000771886 -0.0085633 -0.0235773 0.0267718 -0.205727)
(-0.086065 -0.00177648 -0.0503559 -0.0220258 0.0263737 -0.15228)
(-0.0887426 0.00139831 0.0521168 -0.0139502 0.0164666 -0.151263)
(-0.0183639 0.000609198 0.00895198 -0.0148823 0.0163778 -0.206543)
(-0.00203139 0.000319911 0.00181099 -0.0159393 0.0181855 -0.20448)
(-0.00025914 7.37359e-05 0.00023275 -0.0161925 0.0187143 -0.204176)
(-3.09889e-05 7.88064e-06 4.77994e-05 -0.0161812 0.0187551 -0.204246)
(-3.95898e-06 -2.50451e-06 2.96856e-05 -0.0161987 0.0188345 -0.204285)
(-1.38422e-06 -3.86355e-06 2.45818e-05 -0.0161535 0.0187604 -0.204265)
(-1.6597e-06 1.5278e-06 2.46989e-05 -0.0161935 0.0187482 -0.204273)
(-1.00464e-06 -1.67585e-06 1.36225e-05 -0.016186 0.0188191 -0.204284)
(-2.19261e-07 -2.87499e-06 5.44897e-06 -0.016186 0.0186965 -0.204259)
(-9.90585e-07 -1.64513e-06 1.10788e-05 -0.0161652 0.0187367 -0.204263)
(-1.55955e-06 1.32229e-07 1.0992e-05 -0.0161877 0.0186942 -0.204236)
(1.25215e-08 4.83959e-06 -5.90956e-07 -0.0162054 0.0187054 -0.204261)
(2.04488e-07 8.58189e-07 3.48696e-06 -0.0162058 0.0187608 -0.204271)
(-1.04149e-06 -2.54373e-06 9.41059e-07 -0.0161923 0.0187428 -0.204267)
(-1.36149e-07 1.859e-06 -3.74936e-06 -0.0161898 0.0186964 -0.204258)
(4.8805e-07 8.13509e-07 -1.56759e-06 -0.0162058 0.0187592 -0.204273)
(-4.53169e-07 -4.25629e-06 -4.63451e-07 -0.0161917 0.0187436 -0.204269)
(-8.56188e-07 -1.48829e-06 -4.56002e-06 -0.0161893 0.0186942 -0.204237)
(-1.57607e-06 1.34238e-06 -7.70401e-06 -0.0161983 0.0187421 -0.204268)
(-1.19443e-06 2.96305e-06 -2.18504e-05 -0.0162013 0.0187451 -0.204248)
(1.4456e-07 1.88984e-06 -1.61859e-05 -0.0161824 0.0187549 -0.204271)
(-1.40048e-06 -4.05673e-07 -8.21705e-06 -0.0161923 0.0187468 -0.204273)
(-1.65425e-06 6.76002e-07 -3.13961e-05 -0.0161834 0.0187723 -0.204252)
(-2.81898e-06 4.27293e-07 -2.75716e-05 -0.0161746 0.0187744 -0.204266)
(-3.19085e-05 -8.27134e-06 -3.54729e-05 -0.0162119 0.0187567 -0.204246)
(-0.000260526 -7.23819e-05 -0.000243963 -0.0161881 0.0186554 -0.204135)
(-0.00203099 -0.000316626 -0.00181322 -0.0159478 0.0181944 -0.204496)
(-0.0183608 -0.000607745 -0.00895452 -0.0148822 0.0163764 -0.20654)
(-0.0887417 -0.00139737 -0.0521034 -0.0139377 0.016532 -0.151266)
(-0.0903998 0.000964932 0.053401 -0.00882051 0.0102386 -0.150983)
(-0.0188003 0.000448265 0.00928277 -0.00929852 0.0099914 -0.207535)
(-0.00209828 0.000237876 0.00192587 -0.0101 0.0113135 -0.20547)
(-0.000278723 5.83059e-05 0.000273675 -0.0103125 0.011668 -0.205148)
(-3.6308e-05 6.79718e-06 5.06793e-05 -0.01032 0.0117618 -0.205216)
(-4.51959e-06 -9.99334e-07 2.06125e-05 -0.0103372 0.0117193 -0.205249)
(-1.00971e-06 -2.69735e-06 2.43699e-05 -0.0103011 0.0117584 -0.205235)
(-1.71341e-06 -1.3876e-06 2.42685e-05 -0.0103185 0.0116985 -0.205248)
(-9.59395e-07 -2.58303e-07 5.82896e-06 -0.0103281 0.0117068 -0.20525)
(-2.73741e-07 -2.04115e-07 1.25028e-05 -0.0102966 0.0116963 -0.205245)
(-1.35325e-06 -1.77439e-06 9.63773e-06 -0.0103066 0.0117501 -0.205253)
(-7.82576e-07 -1.75692e-06 -3.20638e-06 -0.0103018 0.011694 -0.205236)
(5.98832e-07 2.88423e-06 9.10158e-06 -0.0103026 0.0116621 -0.205231)
(-5.20866e-07 5.25173e-07 1.07467e-05 -0.0103253 0.0117065 -0.205244)
(-1.17689e-06 -9.02133e-07 -6.71361e-06 -0.0103181 0.0116948 -0.205243)
(1.81259e-07 1.44308e-06 -2.7953e-06 -0.0102996 0.0116955 -0.20524)
(-9.92155e-08 -3.87447e-07 5.48914e-06 -0.0103252 0.0117051 -0.205245)
(-7.4291e-07 -2.70609e-06 -1.00273e-05 -0.0103175 0.0116956 -0.205244)
(-2.44919e-07 -1.93484e-06 -5.05419e-06 -0.0103035 0.0116934 -0.205241)
(-1.03133e-06 -8.69263e-07 2.68928e-07 -0.0103139 0.011652 -0.205234)
(-1.05684e-06 4.81344e-06 -1.35545e-05 -0.0103209 0.0116576 -0.205217)
(-5.51931e-07 2.99785e-06 -1.48824e-05 -0.0103185 0.0117641 -0.205258)
(-1.74976e-06 -1.31726e-06 -2.36592e-05 -0.0103177 0.0116988 -0.205249)
(-1.11509e-06 2.02648e-06 -3.13004e-05 -0.0103102 0.0117079 -0.205242)
(-3.41028e-06 -1.36393e-06 -1.89731e-05 -0.0103056 0.0117273 -0.205241)
(-3.67553e-05 -8.80584e-06 -4.56998e-05 -0.0103222 0.0116605 -0.20521)
(-0.000279537 -5.41435e-05 -0.000276268 -0.0103006 0.0116593 -0.205114)
(-0.00209817 -0.000235765 -0.00192182 -0.0101054 0.011317 -0.205465)
(-0.0187982 -0.000447801 -0.00928557 -0.00929966 0.0099893 -0.207529)
(-0.090395 -0.000966234 -0.0533954 -0.0088274 0.0102504 -0.150987)
(-0.0914186 0.000613081 0.0542504 -0.00556866 0.00639932 -0.150959)
(-0.0190866 0.000311252 0.00954553 -0.00576946 0.0061485 -0.208326)
(-0.00214851 0.000172288 0.00201364 -0.00637942 0.00711487 -0.206271)
(-0.000293538 4.1741e-05 0.000285786 -0.00653794 0.00732582 -0.205942)
(-3.97689e-05 5.4558e-06 5.29666e-05 -0.00655948 0.00736365 -0.206008)
(-5.10536e-06 1.07115e-06 2.6698e-05 -0.00655815 0.00736603 -0.206042)
(-1.19033e-06 -1.9445e-06 2.26935e-05 -0.00655243 0.0074116 -0.206052)
(-1.39012e-06 -2.09964e-06 1.75858e-05 -0.00654599 0.00735205 -0.206045)
(-8.2339e-07 1.55238e-06 1.29909e-05 -0.00655166 0.00735851 -0.206046)
(-6.56095e-07 -2.71424e-07 1.18368e-05 -0.00653839 0.0074013 -0.206051)
(-1.36202e-06 -2.23341e-06 8.2343e-06 -0.0065497 0.00735579 -0.206044)
(-4.05598e-07 1.39587e-06 -2.9613e-06 -0.00653386 0.00736133 -0.206041)
(6.4873e-07 1.16864e-06 3.57166e-06 -0.00652721 0.00740511 -0.206043)
(-5.45737e-07 -2.37463e-06 1.04467e-05 -0.00654933 0.00735681 -0.206041)
(-1.05952e-06 9.3594e-07 9.4938e-08 -0.00654675 0.0073488 -0.206042)
(-1.29828e-07 1.1875e-06 -2.00023e-06 -0.00653968 0.00739983 -0.206048)
(-3.31011e-07 -1.95609e-06 -1.82923e-06 -0.00654915 0.00735554 -0.206043)
(-7.88976e-07 -1.32182e-06 -4.05086e-06 -0.00654531 0.00735002 -0.206042)
(-4.87263e-07 -4.41519e-07 -1.24747e-05 -0.00653898 0.00735991 -0.206042)
(-3.82965e-07 -1.24877e-06 -1.43979e-05 -0.0065296 0.00734795 -0.206035)
(-2.58661e-07 2.48246e-06 -5.13575e-06 -0.00652608 0.00731348 -0.206032)
(-8.81068e-07 2.32025e-06 -6.22223e-06 -0.00655675 0.00736396 -0.206046)
(-2.08001e-06 9.02363e-07 -1.69244e-05 -0.00654547 0.00735306 -0.206046)
(-1.45799e-06 3.7064e-06 -3.06147e-05 -0.00654583 0.00740931 -0.206052)
(-4.0881e-06 -1.75336e-06 -3.27018e-05 -0.00654162 0.00741773 -0.206044)
(-3.95583e-05 -9.25422e-06 -4.23432e-05 -0.00653384 0.00735354 -0.206011)
(-0.000294084 -4.02427e-05 -0.000279131 -0.00653266 0.00732917 -0.205933)
(-0.00214886 -0.000170921 -0.00201543 -0.00638368 0.00711536 -0.206263)
(-0.0190857 -0.000310694 -0.00954943 -0.0057718 0.00614718 -0.208301)
(-0.0914153 -0.000614509 -0.0542478 -0.00557297 0.00640843 -0.150963)
(-0.092046 0.000369992 0.0547768 -0.00351586 0.00401513 -0.150983)
(-0.019262 0.000204748 0.00972268 -0.00357483 0.00381605 -0.208849)
(-0.00218266 0.000122138 0.00207876 -0.00402832 0.00444272 -0.206796)
(-0.000304586 3.07575e-05 0.000300165 -0.00413979 0.00462482 -0.206478)
(-4.23334e-05 4.32043e-06 5.37999e-05 -0.00415747 0.00465325 -0.20656)
(-5.58248e-06 9.30157e-07 2.67205e-05 -0.00415593 0.00465434 -0.20658)
(-1.32636e-06 -1.27908e-06 2.17788e-05 -0.00416112 0.00465874 -0.206586)
(-1.1576e-06 -1.25351e-06 1.74339e-05 -0.00414843 0.0046464 -0.206584)
(-7.85958e-07 8.72536e-07 1.35154e-05 -0.0041514 0.00464978 -0.206583)
(-1.0491e-06 -2.34382e-07 1.17044e-05 -0.0041548 0.00465376 -0.20657)
(-1.07907e-06 -5.86392e-07 1.97965e-07 -0.0041507 0.00465037 -0.206581)
(1.37268e-07 2.36274e-06 3.97609e-06 -0.00413914 0.00465218 -0.206578)
(1.22983e-07 -5.03272e-09 1.11622e-05 -0.00415136 0.0046988 -0.206586)
(-7.39424e-07 -3.41905e-06 3.00952e-06 -0.00415011 0.00464963 -0.206581)
(-6.5416e-07 3.40374e-07 1.54748e-07 -0.00415236 0.00464376 -0.206581)
(-3.01182e-07 1.21916e-06 -1.35748e-06 -0.00415456 0.00465265 -0.206571)
(-7.04059e-07 -1.20526e-06 -2.36461e-06 -0.0041496 0.00464875 -0.206583)
(-5.52689e-07 -1.11384e-06 -1.11662e-05 -0.00414856 0.00464457 -0.206582)
(-1.26865e-07 1.03316e-06 -5.7328e-06 -0.00413632 0.00461621 -0.206558)
(-4.46595e-07 1.77483e-06 -8.12609e-06 -0.00414655 0.00468761 -0.206584)
(-2.00641e-07 5.5981e-07 -1.07047e-05 -0.00412958 0.00469149 -0.206584)
(-8.77524e-07 -7.19277e-07 -5.25637e-06 -0.0041548 0.00465506 -0.206583)
(-1.88446e-06 6.1131e-07 -1.70578e-05 -0.00414806 0.0046478 -0.206585)
(-1.41739e-06 3.72746e-06 -2.27142e-05 -0.00415826 0.00465727 -0.206585)
(-5.35453e-06 2.3132e-07 -2.60346e-05 -0.00416079 0.00470628 -0.206583)
(-4.23732e-05 -8.48238e-06 -5.93026e-05 -0.00414598 0.00469111 -0.20656)
(-0.000304278 -3.18261e-05 -0.000300193 -0.00412923 0.00458832 -0.206463)
(-0.00218284 -0.000121007 -0.00207264 -0.00403111 0.00444135 -0.206788)
(-0.0192621 -0.000203832 -0.00972449 -0.00357561 0.00381323 -0.208844)
(-0.0920449 -0.000370926 -0.0547765 -0.0035165 0.00402176 -0.150985)
(-0.0924316 0.000216929 0.0550904 -0.0022265 0.00251823 -0.151005)
(-0.019365 0.000130269 0.00983827 -0.00222312 0.00237814 -0.209169)
(-0.00220446 8.46146e-05 0.00212548 -0.00254178 0.00279389 -0.207125)
(-0.000312562 2.20248e-05 0.000310822 -0.00262681 0.00292238 -0.206814)
(-4.4242e-05 3.26246e-06 5.62713e-05 -0.00264488 0.00294398 -0.206887)
(-5.98862e-06 1.06563e-06 2.70158e-05 -0.00264017 0.00294364 -0.206919)
(-1.46355e-06 -7.75033e-07 2.11827e-05 -0.00264277 0.002947 -0.206922)
(-1.05292e-06 -8.29478e-07 1.686e-05 -0.00263524 0.00293912 -0.206923)
(-7.5517e-07 2.61796e-07 1.35087e-05 -0.00263662 0.00294103 -0.206923)
(-9.47312e-07 -2.04742e-07 1.14853e-05 -0.00263943 0.00294548 -0.206911)
(-8.94882e-07 1.15228e-06 6.75452e-06 -0.00263691 0.00294185 -0.206919)
(-8.26183e-08 1.4649e-06 4.54662e-06 -0.00263654 0.0029842 -0.206923)
(-2.59414e-07 -1.25648e-06 4.55422e-06 -0.00264583 0.00295071 -0.206919)
(-6.48034e-07 -3.09897e-06 2.08827e-06 -0.0026361 0.00294174 -0.20692)
(-2.75063e-07 3.78692e-08 -8.81777e-08 -0.00263214 0.00290232 -0.206915)
(-3.36374e-07 1.80812e-06 -8.01629e-07 -0.00263798 0.00294382 -0.206922)
(-9.26419e-07 -8.93917e-07 -2.56629e-06 -0.0026354 0.00294148 -0.206922)
(-4.63925e-07 1.21178e-06 -1.17389e-05 -0.00263831 0.00293809 -0.206921)
(1.93415e-07 1.36648e-08 -5.4874e-06 -0.00262034 0.00298404 -0.20692)
(-3.6442e-07 2.45155e-07 -9.21128e-07 -0.00263734 0.0029071 -0.206914)
(-5.75933e-07 1.33539e-06 -9.96029e-06 -0.0026413 0.00298559 -0.206925)
(-9.56553e-07 -1.45339e-06 -1.17517e-05 -0.00263999 0.00294446 -0.20692)
(-1.5222e-06 4.34736e-07 -1.68668e-05 -0.00263498 0.00294069 -0.206923)
(-1.43743e-06 2.16186e-06 -2.16315e-05 -0.00264169 0.00294677 -0.206922)
(-6.112e-06 -8.61319e-08 -2.62977e-05 -0.00265133 0.00295325 -0.206916)
(-4.44464e-05 -4.27852e-06 -6.1901e-05 -0.0026431 0.00294395 -0.206895)
(-0.000311945 -2.32532e-05 -0.000311039 -0.00261951 0.0029617 -0.206806)
(-0.00220449 -8.54945e-05 -0.00211888 -0.00254464 0.00279123 -0.207118)
(-0.0193658 -0.000128969 -0.00983981 -0.00222216 0.00237552 -0.209167)
(-0.0924323 -0.000217337 -0.0550919 -0.00222264 0.00252309 -0.151007)
(-0.0926717 0.000125713 0.0552729 -0.00140791 0.00153223 -0.151016)
(-0.0194242 8.16318e-05 0.0099102 -0.0013948 0.00147895 -0.209361)
(-0.00221787 5.7184e-05 0.00215815 -0.00161376 0.0017483 -0.207327)
(-0.00031821 1.47145e-05 0.000318386 -0.00167743 0.00183779 -0.207021)
(-4.54939e-05 2.29434e-06 5.63088e-05 -0.00168599 0.0018166 -0.207103)
(-6.24593e-06 1.74575e-06 2.7608e-05 -0.00168906 0.00185229 -0.207128)
(-1.66771e-06 -3.82084e-07 2.07845e-05 -0.00168976 0.00185407 -0.207131)
(-1.03056e-06 -5.23917e-07 1.63653e-05 -0.00168528 0.00184999 -0.207133)
(-7.33285e-07 9.93577e-08 1.30855e-05 -0.00168581 0.00185164 -0.207133)
(-8.35517e-07 -2.44874e-07 1.10699e-05 -0.0016865 0.00185397 -0.207132)
(-7.49491e-07 3.37436e-07 7.19789e-06 -0.00168729 0.00185143 -0.207129)
(-2.02179e-07 9.8268e-07 5.22997e-06 -0.00169779 0.00185616 -0.207128)
(-6.56492e-07 -3.14002e-07 4.48863e-06 -0.00169197 0.00185786 -0.207126)
(-6.07721e-07 -1.32799e-06 -5.50847e-06 -0.00168573 0.00185231 -0.207129)
(2.55901e-07 1.16805e-07 -9.34672e-08 -0.001674 0.00184927 -0.207125)
(-4.17369e-07 6.51286e-07 6.39934e-06 -0.00168597 0.00185447 -0.207131)
(-9.64211e-07 -1.45703e-06 -2.80805e-06 -0.00168491 0.00185267 -0.20713)
(-4.4573e-07 2.0231e-06 -5.06657e-06 -0.00168144 0.00181581 -0.207127)
(-1.63125e-07 1.41568e-06 -1.19158e-05 -0.0016874 0.00189655 -0.207133)
(-9.27185e-08 -2.0851e-06 -7.20495e-06 -0.00167714 0.00185279 -0.207123)
(-4.42994e-07 4.16848e-08 -2.90368e-06 -0.00169116 0.00182443 -0.207125)
(-1.12269e-06 7.03789e-08 -1.20945e-05 -0.00169022 0.00185218 -0.207128)
(-1.35695e-06 4.51717e-07 -1.66539e-05 -0.00168513 0.00185169 -0.207132)
(-1.4952e-06 1.1951e-06 -2.08094e-05 -0.0016895 0.00185446 -0.20713)
(-6.46283e-06 -3.37018e-07 -2.63632e-05 -0.00169474 0.00185832 -0.207124)
(-4.5966e-05 -3.16853e-06 -5.70289e-05 -0.00169192 0.00185249 -0.207102)
(-0.000317721 -1.68545e-05 -0.000319558 -0.00168388 0.00184242 -0.207011)
(-0.00221761 -5.77232e-05 -0.00215829 -0.00161878 0.00174517 -0.207322)
(-0.0194252 -7.90971e-05 -0.00991188 -0.00139384 0.00147708 -0.209361)
(-0.0926697 -0.000125174 -0.055276 -0.00141223 0.00157366 -0.151024)
(-0.0928183 7.22313e-05 0.0553731 -0.000895817 0.000965629 -0.151026)
(-0.0194577 4.84095e-05 0.00996343 -0.00089064 0.000907579 -0.209477)
(-0.00222607 3.7458e-05 0.00218025 -0.00104015 0.00107832 -0.207452)
(-0.000322029 1.09261e-05 0.000317408 -0.0010874 0.00113892 -0.207148)
(-4.61799e-05 1.46342e-06 5.70099e-05 -0.0010864 0.00114788 -0.207231)
(-6.4342e-06 4.65341e-07 3.45281e-05 -0.00109837 0.00114713 -0.207257)
(-1.93313e-06 -2.8712e-08 2.05925e-05 -0.00109715 0.00114871 -0.20726)
(-1.01888e-06 -2.67322e-07 1.60682e-05 -0.00109439 0.00114693 -0.207262)
(-7.25101e-07 1.9625e-07 1.3069e-05 -0.00109471 0.0011485 -0.207263)
(-8.43071e-07 -3.58299e-07 1.0844e-05 -0.00109541 0.00115067 -0.207261)
(-6.30647e-07 -8.48395e-07 7.36262e-06 -0.00109729 0.00114695 -0.207258)
(-1.54935e-07 7.88809e-07 5.69276e-06 -0.0010964 0.00111702 -0.207253)
(-6.83465e-07 7.65871e-07 4.31227e-06 -0.00109819 0.00115121 -0.207256)
(-6.22961e-07 5.1867e-08 6.53438e-07 -0.0010949 0.00114888 -0.207258)
(1.24132e-07 1.27345e-07 1.50498e-07 -0.00109637 0.00118263 -0.207258)
(-6.16458e-07 -2.99652e-07 2.10293e-07 -0.00109635 0.00115046 -0.207257)
(-7.73287e-07 -1.58354e-07 -9.8163e-06 -0.00109456 0.00114975 -0.207258)
(6.30706e-08 1.13799e-06 -4.67802e-06 -0.00108164 0.00114862 -0.207255)
(-4.83184e-07 1.01149e-06 1.53931e-06 -0.00110306 0.00115696 -0.207258)
(-5.61748e-07 -5.13956e-07 -1.39316e-05 -0.00109768 0.00118487 -0.207257)
(-1.24888e-07 -1.34527e-06 -9.50111e-06 -0.00108687 0.00115394 -0.207252)
(-9.26194e-07 -6.47889e-07 -5.68818e-06 -0.00110126 0.00114716 -0.207257)
(-1.38664e-06 6.24056e-07 -1.63618e-05 -0.00109428 0.00114884 -0.207261)
(-1.59208e-06 5.92076e-07 -2.04083e-05 -0.0010975 0.00114916 -0.207259)
(-6.92397e-06 -6.48013e-07 -2.65756e-05 -0.00109984 0.00115103 -0.207254)
(-4.71138e-05 -2.64492e-06 -6.48201e-05 -0.00110194 0.00114671 -0.20723)
(-0.000321239 -1.21181e-05 -0.000325734 -0.00108208 0.00110765 -0.207132)
(-0.00222515 -3.75163e-05 -0.00217404 -0.00103694 0.00104171 -0.207443)
(-0.0194589 -4.65815e-05 -0.00995514 -0.000890262 0.000907074 -0.209476)
(-0.0928142 -7.10747e-05 -0.0553816 -0.000908919 0.000965451 -0.151036)
(-0.0928995 4.05257e-05 0.0554405 -0.000606732 0.000609954 -0.151042)
(-0.0194771 2.70001e-05 0.00997884 -0.00058975 0.000535071 -0.209544)
(-0.00223012 2.32763e-05 0.00219464 -0.000693936 0.000639175 -0.207526)
(-0.000324531 7.78701e-06 0.000328268 -0.000730652 0.000678108 -0.207224)
(-4.71939e-05 3.78342e-07 5.82917e-05 -0.000741824 0.000716727 -0.207302)
(-6.50724e-06 -3.11258e-07 2.78624e-05 -0.000741724 0.000681271 -0.207335)
(-1.8529e-06 4.39431e-07 2.06337e-05 -0.000737259 0.00068298 -0.207339)
(-1.02857e-06 -8.22648e-08 1.59461e-05 -0.000735591 0.000682574 -0.207341)
(-7.49511e-07 5.23197e-08 1.32415e-05 -0.000735996 0.000683821 -0.207341)
(-9.93249e-07 -6.70687e-07 1.0731e-05 -0.000737727 0.000685155 -0.20733)
(-5.01051e-07 2.2342e-07 6.09611e-07 -0.000740856 0.000681718 -0.207337)
(1.34002e-07 9.11302e-07 6.10433e-06 -0.000726481 0.000685521 -0.20733)
(-8.11064e-07 -1.88298e-07 1.0886e-05 -0.000737512 0.000685256 -0.207335)
(-7.57341e-07 -1.12025e-06 4.56138e-07 -0.000736095 0.00068417 -0.207337)
(2.17796e-07 -1.47869e-07 3.66607e-07 -0.000739067 0.000650057 -0.207333)
(-4.66308e-07 9.49491e-07 4.86461e-07 -0.000739056 0.00068424 -0.207326)
(-7.47798e-07 1.41083e-06 -3.19378e-06 -0.000736779 0.000685041 -0.207327)
(-2.24269e-07 7.78701e-07 -4.27067e-06 -0.000733134 0.000720171 -0.207337)
(-4.22693e-07 -1.61603e-06 -5.03839e-06 -0.000741542 0.000689374 -0.207334)
(-5.1492e-07 9.26661e-07 -7.41338e-06 -0.000739209 0.00065192 -0.207332)
(-4.50835e-07 -8.19075e-07 -9.70294e-06 -0.000736096 0.000723173 -0.207334)
(-7.72347e-07 -1.61632e-06 -1.2546e-05 -0.000734872 0.000648219 -0.207333)
(-1.15418e-06 1.1657e-06 -1.62068e-05 -0.000736141 0.000684639 -0.207338)
(-1.74751e-06 2.20003e-07 -2.0327e-05 -0.000738386 0.000683017 -0.207337)
(-7.10869e-06 -1.25481e-06 -2.67827e-05 -0.000738612 0.000684433 -0.207332)
(-4.79024e-05 2.8012e-08 -6.55406e-05 -0.000734915 0.000647599 -0.207305)
(-0.000323792 -5.90222e-06 -0.000336983 -0.000719796 0.000714759 -0.207213)
(-0.00222921 -2.50494e-05 -0.00218864 -0.000680811 0.000638119 -0.207517)
(-0.0194774 -2.75565e-05 -0.00997321 -0.000590655 0.000534697 -0.209542)
(-0.0928997 -3.99241e-05 -0.0554372 -0.000604314 0.000572093 -0.151046)
(-0.092948 2.09116e-05 0.0554742 -0.00043575 0.000263013 -0.151046)
(-0.0194875 1.54135e-05 0.00999327 -0.000420445 0.000279993 -0.209584)
(-0.00223252 1.25298e-05 0.00220334 -0.000498488 0.000336128 -0.207569)
(-0.00032613 2.67909e-06 0.000331988 -0.000528913 0.000357228 -0.207258)
(-4.75892e-05 -6.46524e-07 5.71334e-05 -0.000539864 0.000324584 -0.207355)
(-6.38294e-06 1.38927e-06 2.82878e-05 -0.000529841 0.000324629 -0.207378)
(-1.93128e-06 1.23063e-06 2.08308e-05 -0.000532868 0.000359695 -0.207384)
(-1.13207e-06 2.51207e-08 1.59302e-05 -0.000532036 0.000359957 -0.207386)
(-8.41402e-07 -1.19823e-07 1.29605e-05 -0.000532518 0.000360816 -0.207385)
(-7.6693e-07 -1.33623e-06 1.01485e-05 -0.000533146 0.000359945 -0.207384)
(-2.91583e-07 1.3813e-06 7.69552e-06 -0.000529678 0.000325472 -0.207379)
(-2.30803e-07 1.4652e-06 6.52769e-06 -0.000532069 0.000396714 -0.207378)
(-1.10467e-06 -1.18373e-06 4.10692e-06 -0.000534303 0.000362276 -0.207379)
(-6.35946e-07 -2.75817e-07 -6.44616e-06 -0.000532412 0.000361237 -0.207381)
(5.60083e-07 -4.88166e-07 -8.21645e-08 -0.000524679 0.000360623 -0.207377)
(-2.89987e-07 7.49057e-08 7.20593e-06 -0.00053543 0.000358013 -0.207381)
(-8.25188e-07 1.05749e-06 -2.5078e-06 -0.000533362 0.000360852 -0.207381)
(-5.39981e-07 4.60343e-07 -3.60641e-06 -0.000538282 0.000363282 -0.207382)
(-4.44678e-07 -1.58333e-07 -1.16148e-05 -0.000536505 0.000362783 -0.20737)
(-3.89072e-07 4.33349e-07 -7.29276e-06 -0.000523539 0.000362816 -0.207375)
(-6.09283e-07 -6.05702e-07 -1.02112e-05 -0.000540026 0.000364368 -0.20737)