/*--------------------------------*- C++ -*----------------------------------*\
| =========                 |                                                 |
| \\      /  F ield         | OpenFOAM: The Open Source CFD Toolbox           |
|  \\    /   O peration     | Version:  2106                                  |
|   \\  /    A nd           | Website:  www.openfoam.com                      |
|    \\/     M anipulation  |                                                 |
\*---------------------------------------------------------------------------*/
FoamFile
{
    version     2.0;
    format      ascii;
    arch        "LSB;label=32;scalar=64";
    class       volSymmTensorField;
    location    "869";
    object      sigma;
}
// * * * * * * * * * * * * * * * * * * * * * * * * * * * * * * * * * * * * * //

dimensions      [1 -1 -2 0 0 0 0];

internalField   nonuniform List<symmTensor> 
9000
(
(5.39354e+07 -135923 2.48449e+07 2.21918e+07 3.16774e+07 8.49934e+07)
(9.63409e+07 277448 4.84068e+06 2.4274e+07 3.35973e+07 6.9011e+07)
(1.10954e+08 173204 1.32344e+06 2.61169e+07 3.56752e+07 8.12466e+07)
(1.12755e+08 26120.7 232832 2.62567e+07 3.61337e+07 8.33126e+07)
(1.12971e+08 -4100.59 20349.9 2.62935e+07 3.61474e+07 8.3385e+07)
(1.12979e+08 -1062.3 8968.12 2.63689e+07 3.60382e+07 8.32248e+07)
(1.12977e+08 -19.1542 13066.4 2.63016e+07 3.61225e+07 8.32807e+07)
(1.12986e+08 -3052.49 3942.34 2.63777e+07 3.60387e+07 8.32296e+07)
(1.12982e+08 3327.38 16108.7 2.63761e+07 3.6037e+07 8.32229e+07)
(1.12997e+08 3419.32 -3862.58 2.63038e+07 3.61337e+07 8.33531e+07)
(1.13002e+08 -3232.57 -25308.9 2.63652e+07 3.60732e+07 8.32878e+07)
(1.1298e+08 -278.393 20498.4 2.64348e+07 3.59749e+07 8.314e+07)
(1.12991e+08 2812.55 30403.3 2.63026e+07 3.61275e+07 8.33316e+07)
(1.12989e+08 427.617 -15571 2.62913e+07 3.61321e+07 8.3335e+07)
(1.13005e+08 445.18 957.613 2.63613e+07 3.60778e+07 8.32983e+07)
(1.12999e+08 -611.994 15720.6 2.63024e+07 3.61346e+07 8.33519e+07)
(1.12989e+08 174.972 -18737.2 2.62917e+07 3.61317e+07 8.3332e+07)
(1.13004e+08 390.256 -1613.92 2.636e+07 3.60789e+07 8.33036e+07)
(1.12998e+08 -3438.08 -12799.2 2.63068e+07 3.61303e+07 8.33432e+07)
(1.12988e+08 -3288.15 -13746.8 2.6438e+07 3.59798e+07 8.31681e+07)
(1.1298e+08 3002.79 20505.4 2.63787e+07 3.60335e+07 8.32058e+07)
(1.12992e+08 3373.38 3535.86 2.62986e+07 3.61305e+07 8.334e+07)
(1.13e+08 -3032.42 -16472.6 2.63033e+07 3.61352e+07 8.33564e+07)
(1.12987e+08 -417.641 -13608.4 2.63728e+07 3.6041e+07 8.32378e+07)
(1.12989e+08 856 -12366 2.6301e+07 3.61277e+07 8.33339e+07)
(1.12958e+08 1000.85 -47930.3 2.6366e+07 3.6054e+07 8.32701e+07)
(1.12755e+08 -23569.1 -226820 2.63209e+07 3.60693e+07 8.3236e+07)
(1.10943e+08 -173090 -1.30397e+06 2.61092e+07 3.56692e+07 8.12226e+07)
(9.63383e+07 -276960 -4.83982e+06 2.42737e+07 3.35968e+07 6.9009e+07)
(5.39338e+07 135886 -2.48454e+07 2.21902e+07 3.16751e+07 8.49886e+07)
(4.17511e+07 -5805.87 2.39765e+07 2.851e+07 3.51726e+07 1.25593e+07)
(7.28747e+07 352099 4.13954e+06 2.80981e+07 3.70121e+07 -8.94498e+06)
(8.60173e+07 223205 795525 3.05973e+07 3.93263e+07 -1.43065e+06)
(8.73506e+07 36609.2 118216 3.05056e+07 3.99236e+07 -568141)
(8.74936e+07 -3261.15 16513.7 3.05447e+07 3.99407e+07 -541467)
(8.76098e+07 -1685.32 16017.7 3.07627e+07 3.99062e+07 -445042)
(8.75304e+07 261.068 13232.4 3.05959e+07 3.99119e+07 -531398)
(8.7625e+07 -884.482 -1425.65 3.07887e+07 3.99085e+07 -429915)
(8.76223e+07 1064.06 17627.5 3.07851e+07 3.9905e+07 -436320)
(8.75213e+07 3725.67 17448.7 3.05736e+07 3.99185e+07 -539318)
(8.75806e+07 1713.84 -5910.4 3.0683e+07 4.00087e+07 -465256)
(8.7687e+07 -3036.21 2245.25 3.0903e+07 3.99905e+07 -353810)
(8.75205e+07 -3604.12 12267.2 3.05736e+07 3.99094e+07 -542015)
(8.75401e+07 3254.73 928.512 3.06048e+07 3.98397e+07 -512717)
(8.75741e+07 1935.84 -756.553 3.06699e+07 4.00157e+07 -473651)
(8.75191e+07 -4650.24 -1069.1 3.05694e+07 3.99208e+07 -543905)
(8.75404e+07 2664.7 -431.198 3.06056e+07 3.98392e+07 -513900)
(8.7574e+07 1962.85 -1801.18 3.06677e+07 4.00164e+07 -471054)
(8.75248e+07 -1109.08 -12719 3.05821e+07 3.99135e+07 -538047)
(8.76833e+07 -991.479 -14409.1 3.08957e+07 4.00011e+07 -356316)
(8.76349e+07 -2143.37 2443.96 3.08059e+07 3.98986e+07 -417652)
(8.75139e+07 992.616 2589.06 3.05606e+07 3.99134e+07 -550086)
(8.75197e+07 -559.202 -19356.3 3.05706e+07 3.99212e+07 -541597)
(8.76182e+07 -896.681 -11742.9 3.07729e+07 3.99101e+07 -435319)
(8.75142e+07 1765.02 -14854.8 3.05667e+07 3.99084e+07 -546193)
(8.7596e+07 5122.44 -26069.5 3.07548e+07 3.99319e+07 -430936)
(8.74161e+07 -37896.5 -107710 3.06285e+07 4.00077e+07 -486942)
(8.60343e+07 -225771 -796531 3.06331e+07 3.92437e+07 -1.41301e+06)
(7.28761e+07 -350377 -4.14087e+06 2.81005e+07 3.7011e+07 -8.94285e+06)
(4.17503e+07 5792.2 -2.39768e+07 2.85067e+07 3.51674e+07 1.25575e+07)
(4.53337e+07 604969 2.41141e+07 5.50067e+07 3.00049e+07 5.55977e+06)
(8.00971e+07 449556 4.05688e+06 5.75572e+07 3.12853e+07 -1.55659e+07)
(9.39294e+07 268008 705425 6.21721e+07 3.33852e+07 -8.27524e+06)
(9.53065e+07 50674 87125.3 6.23348e+07 3.39924e+07 -7.57729e+06)
(9.54419e+07 -454.934 28749 6.23824e+07 3.40147e+07 -7.55956e+06)
(9.5522e+07 -2661.69 17786.3 6.251e+07 3.40712e+07 -7.46628e+06)
(9.54674e+07 1124.1 12782.7 6.24148e+07 3.39831e+07 -7.54744e+06)
(9.55184e+07 2311.1 11320.7 6.25085e+07 3.41215e+07 -7.4811e+06)
(9.55135e+07 -1476.21 4070.2 6.24989e+07 3.41177e+07 -7.4884e+06)
(9.54671e+07 -1435.15 4798.41 6.24118e+07 3.3994e+07 -7.55199e+06)
(9.54769e+07 1659.92 9550.72 6.24285e+07 3.39809e+07 -7.53405e+06)
(9.55322e+07 -1393.01 2458.89 6.25306e+07 3.4108e+07 -7.45751e+06)
(9.54955e+07 -1775.28 -10278.9 6.24515e+07 3.3937e+07 -7.49982e+06)
(9.55072e+07 1984.53 304.933 6.24871e+07 3.39954e+07 -7.50259e+06)
(9.54726e+07 269.621 6225.82 6.24218e+07 3.39892e+07 -7.54022e+06)
(9.54645e+07 -549.587 -8785.48 6.24089e+07 3.3997e+07 -7.55464e+06)
(9.55057e+07 238.96 84.8276 6.2486e+07 3.39948e+07 -7.5054e+06)
(9.5473e+07 146.667 5943.94 6.24204e+07 3.39889e+07 -7.54043e+06)
(9.54689e+07 1204.07 1438.49 6.24176e+07 3.39889e+07 -7.54881e+06)
(9.55288e+07 1446.57 -472.527 6.25249e+07 3.41107e+07 -7.46326e+06)
(9.55269e+07 -2846.47 -11044.8 6.25221e+07 3.41183e+07 -7.46733e+06)
(9.54797e+07 -1311.34 -12021.2 6.24291e+07 3.39419e+07 -7.52983e+06)
(9.54654e+07 2631.89 -6643.57 6.24105e+07 3.39976e+07 -7.55375e+06)
(9.55095e+07 -2047.55 -10757.2 6.24898e+07 3.41213e+07 -7.48998e+06)
(9.5476e+07 2086.25 -15258.3 6.24258e+07 3.39368e+07 -7.52735e+06)
(9.54942e+07 2389.89 -23577.9 6.2477e+07 3.41426e+07 -7.48714e+06)
(9.5323e+07 -52807 -97163 6.23643e+07 3.39732e+07 -7.55054e+06)
(9.39695e+07 -267869 -708949 6.22493e+07 3.33751e+07 -8.22942e+06)
(8.01007e+07 -449832 -4.05145e+06 5.75612e+07 3.12843e+07 -1.55613e+07)
(4.53316e+07 -604859 -2.4114e+07 5.49983e+07 2.99983e+07 5.55544e+06)
(4.9761e+07 936520 2.49513e+07 7.38577e+07 2.11031e+07 1.24031e+07)
(8.85269e+07 454102 4.19753e+06 7.8132e+07 2.18036e+07 -8.60793e+06)
(1.03358e+08 255337 767167 8.41468e+07 2.35275e+07 -653261)
(1.04869e+08 51825.4 97747.1 8.45315e+07 2.39808e+07 151079)
(1.05016e+08 -393.816 21101.2 8.45777e+07 2.40047e+07 168189)
(1.05074e+08 -3486.88 18069.8 8.46577e+07 2.39514e+07 234349)
(1.05051e+08 651.779 17151.6 8.46217e+07 2.3945e+07 196095)
(1.05033e+08 792.931 9758.37 8.45949e+07 2.39885e+07 166640)
(1.05054e+08 255.166 6424.24 8.46183e+07 2.39505e+07 206699)
(1.05043e+08 170.233 6033.22 8.46065e+07 2.39882e+07 177522)
(1.05045e+08 -1027.74 7607.24 8.46122e+07 2.39813e+07 182368)
(1.05051e+08 387.682 -2327.38 8.46174e+07 2.39767e+07 201645)
(1.05072e+08 3067.7 -1829.34 8.46603e+07 2.39886e+07 218309)
(1.05052e+08 534.489 5392.64 8.46281e+07 2.40736e+07 183577)
(1.05044e+08 -1793.2 -385.7 8.4613e+07 2.39886e+07 180712)
(1.0504e+08 2115.97 -1975.5 8.46034e+07 2.39915e+07 173288)
(1.0505e+08 -312.748 -131.814 8.46257e+07 2.40729e+07 179796)
(1.05045e+08 -2183.47 -159.708 8.46129e+07 2.39884e+07 180301)
(1.05053e+08 -807.965 -758.706 8.46193e+07 2.39835e+07 200300)
(1.05039e+08 -386.37 -2959.82 8.46039e+07 2.39824e+07 175887)
(1.05047e+08 578.49 -13560 8.4611e+07 2.39832e+07 193662)
(1.05072e+08 816.024 -10190 8.46535e+07 2.39856e+07 221091)
(1.05041e+08 -646.875 -3483.9 8.46066e+07 2.39929e+07 174321)
(1.05041e+08 -1979.13 -15598.4 8.4603e+07 2.39527e+07 182793)
(1.05081e+08 2507.22 -15498.3 8.4668e+07 2.39464e+07 245287)
(1.05013e+08 98.5004 -17811.6 8.45714e+07 2.4004e+07 167726)
(1.04878e+08 -50401.2 -98585.5 8.45484e+07 2.39676e+07 166084)
(1.03381e+08 -254076 -771067 8.41822e+07 2.3601e+07 -616650)
(8.85307e+07 -456861 -4.19942e+06 7.81357e+07 2.18029e+07 -8.60361e+06)
(4.97678e+07 -936160 -2.49503e+07 7.38715e+07 2.10635e+07 1.24195e+07)
(5.26185e+07 917437 2.59832e+07 8.56339e+07 1.36103e+07 1.84524e+07)
(9.39602e+07 397611 4.41102e+06 9.09625e+07 1.38114e+07 -3.0023e+06)
(1.09652e+08 212796 855511 9.77961e+07 1.5162e+07 5.54206e+06)
(1.11313e+08 44530.8 108278 9.83889e+07 1.54556e+07 6.48928e+06)
(1.11488e+08 2783.14 20619.9 9.8456e+07 1.54504e+07 6.52597e+06)
(1.11515e+08 -2441.16 12177 9.84948e+07 1.55249e+07 6.52564e+06)
(1.11527e+08 -1465.4 16568.8 9.85051e+07 1.54336e+07 6.54766e+06)
(1.11498e+08 1150.39 9168.69 9.84572e+07 1.54721e+07 6.50638e+06)
(1.11517e+08 -83.6218 7063 9.84889e+07 1.54728e+07 6.53071e+06)
(1.11511e+08 -1140.2 10911.9 9.8467e+07 1.54667e+07 6.53081e+06)
(1.11516e+08 -1069.96 6358.84 9.84824e+07 1.54354e+07 6.53503e+06)
(1.11505e+08 2046.47 1898.71 9.84644e+07 1.54668e+07 6.5224e+06)
(1.11504e+08 2538.71 -1328.73 9.84666e+07 1.55172e+07 6.50963e+06)
(1.11494e+08 -626.289 1180.76 9.84424e+07 1.548e+07 6.50157e+06)
(1.11505e+08 -1104.42 404.995 9.84662e+07 1.54686e+07 6.51689e+06)
(1.11501e+08 1312.12 -2342.38 9.8456e+07 1.54693e+07 6.51143e+06)
(1.11492e+08 -170.472 -463.331 9.84405e+07 1.54794e+07 6.49852e+06)
(1.11505e+08 -1779.1 512.779 9.84662e+07 1.54684e+07 6.51599e+06)
(1.11515e+08 -886.567 -1767.14 9.84718e+07 1.54659e+07 6.54082e+06)
(1.11501e+08 -53.5843 -3955.12 9.84602e+07 1.54682e+07 6.51161e+06)
(1.11503e+08 1417.74 -7538.92 9.84622e+07 1.54711e+07 6.51641e+06)
(1.11515e+08 971.985 -8975.56 9.84839e+07 1.54919e+07 6.52657e+06)
(1.11502e+08 -590.225 -12993.7 9.84624e+07 1.54711e+07 6.51159e+06)
(1.11512e+08 -512.629 -15574 9.84806e+07 1.54707e+07 6.52576e+06)
(1.11527e+08 1286.45 -10295 9.85082e+07 1.54876e+07 6.5473e+06)
(1.11476e+08 -2477.55 -18114.8 9.84372e+07 1.5481e+07 6.51008e+06)
(1.11317e+08 -44590.3 -109289 9.83949e+07 1.54463e+07 6.50014e+06)
(1.09646e+08 -211312 -857863 9.77818e+07 1.51691e+07 5.53907e+06)
(9.3964e+07 -398187 -4.41749e+06 9.09652e+07 1.38106e+07 -2.99923e+06)
(5.26307e+07 -916419 -2.59767e+07 8.56661e+07 1.36052e+07 1.8473e+07)
(5.41911e+07 721338 2.68851e+07 9.27737e+07 8.49449e+06 2.19393e+07)
(9.69926e+07 314262 4.61799e+06 9.87886e+07 8.44872e+06 -81950.9)
(1.13369e+08 165030 934223 1.06194e+08 9.38124e+06 8.93313e+06)
(1.15118e+08 38037.6 120067 1.06899e+08 9.654e+06 9.92516e+06)
(1.15314e+08 4065.33 24658 1.06983e+08 9.67507e+06 9.96715e+06)
(1.15314e+08 -1291.98 15313.7 1.0696e+08 9.71601e+06 9.93306e+06)
(1.15347e+08 -1993.06 12680.8 1.07015e+08 9.67781e+06 9.97475e+06)
(1.15325e+08 788.137 12741.2 1.06972e+08 9.67148e+06 9.94857e+06)
(1.15323e+08 -864.507 7027.32 1.06974e+08 9.70809e+06 9.94127e+06)
(1.15336e+08 -1483.1 2810.92 1.06986e+08 9.64482e+06 9.96644e+06)
(1.15343e+08 -848.663 5715.12 1.07004e+08 9.66555e+06 9.97205e+06)
(1.15344e+08 68.2121 5670.36 1.06995e+08 9.64363e+06 9.98759e+06)
(1.15326e+08 2496.56 -304.852 1.06966e+08 9.64942e+06 9.95561e+06)
(1.15322e+08 442.708 1798.79 1.06962e+08 9.678e+06 9.94571e+06)
(1.15329e+08 -1312.22 485.457 1.06976e+08 9.66873e+06 9.95573e+06)
(1.15335e+08 958.991 -1934.15 1.06983e+08 9.64476e+06 9.96607e+06)
(1.15321e+08 419.659 -808.663 1.06961e+08 9.67717e+06 9.94431e+06)
(1.15328e+08 -2195.66 -239.077 1.06976e+08 9.66913e+06 9.95405e+06)
(1.15344e+08 -767.755 -2352.34 1.06993e+08 9.64367e+06 9.98617e+06)
(1.15325e+08 692.482 -3974.21 1.0697e+08 9.66833e+06 9.95144e+06)
(1.15333e+08 1528.53 -11271.8 1.06976e+08 9.66987e+06 9.9691e+06)
(1.15332e+08 974.897 -8349.72 1.06984e+08 9.67496e+06 9.95666e+06)
(1.15325e+08 -209.272 -4238.87 1.06973e+08 9.67078e+06 9.94924e+06)
(1.15339e+08 348.724 -16196.1 1.06992e+08 9.68394e+06 9.97412e+06)
(1.15335e+08 220.425 -14223.2 1.06993e+08 9.68501e+06 9.96384e+06)
(1.15299e+08 -4266.88 -18299.1 1.06952e+08 9.67587e+06 9.95282e+06)
(1.15138e+08 -37339.1 -125852 1.06922e+08 9.62363e+06 9.96706e+06)
(1.13357e+08 -163336 -935375 1.06178e+08 9.38583e+06 8.91322e+06)
(9.69971e+07 -313513 -4.61931e+06 9.87916e+07 8.448e+06 -77553.3)
(5.41961e+07 -720851 -2.68782e+07 9.27847e+07 8.52825e+06 2.19421e+07)
(5.50566e+07 497773 2.75476e+07 9.71403e+07 5.28172e+06 2.3804e+07)
(9.86731e+07 231243 4.78864e+06 1.03575e+08 5.15419e+06 1.31205e+06)
(1.15527e+08 122711 993483 1.11399e+08 5.83623e+06 1.06147e+07)
(1.1735e+08 30077.8 141179 1.12174e+08 6.01907e+06 1.16654e+07)
(1.17551e+08 3506.41 26143.6 1.12246e+08 6.06747e+06 1.17066e+07)
(1.1756e+08 -515.519 10633.2 1.1223e+08 6.04553e+06 1.1682e+07)
(1.17586e+08 -1391.46 12571.5 1.12272e+08 6.06574e+06 1.17131e+07)
(1.17572e+08 -715.809 12519.2 1.1225e+08 6.03482e+06 1.16928e+07)
(1.17567e+08 -133.249 3006.94 1.12239e+08 6.03912e+06 1.16861e+07)
(1.17584e+08 -105.295 6449.73 1.12273e+08 6.03367e+06 1.17063e+07)
(1.17575e+08 -915.34 4971.74 1.12259e+08 6.06146e+06 1.16932e+07)
(1.17586e+08 -906.327 -1654.05 1.12272e+08 6.03249e+06 1.17126e+07)
(1.17589e+08 1487.87 4695.16 1.12274e+08 6.01604e+06 1.17172e+07)
(1.17571e+08 270.917 5543.84 1.12245e+08 6.03897e+06 1.16937e+07)
(1.17575e+08 -465.377 -3463.3 1.12252e+08 6.03293e+06 1.16981e+07)
(1.17586e+08 744.433 -1441.99 1.12272e+08 6.03326e+06 1.17103e+07)
(1.17571e+08 -199.869 2831.64 1.12245e+08 6.03823e+06 1.16929e+07)
(1.17575e+08 -1395.97 -5172.73 1.12253e+08 6.03335e+06 1.16972e+07)
(1.17583e+08 -998.11 -2607.27 1.12268e+08 6.03218e+06 1.17073e+07)
(1.17581e+08 -448.42 138.73 1.12261e+08 6.01084e+06 1.1709e+07)
(1.17585e+08 2483.08 -6992.27 1.12262e+08 6.01374e+06 1.1722e+07)
(1.17568e+08 1546.48 -7677.3 1.12246e+08 6.06867e+06 1.16838e+07)
(1.17571e+08 -679.525 -12204.9 1.1225e+08 6.03498e+06 1.1692e+07)
(1.17579e+08 1045.39 -16146.7 1.12261e+08 6.0397e+06 1.17028e+07)
(1.17579e+08 -703.601 -9787.52 1.12264e+08 6.04966e+06 1.17041e+07)
(1.17553e+08 -4542.61 -23574.8 1.12247e+08 6.0152e+06 1.17115e+07)
(1.1737e+08 -27930.6 -142516 1.12201e+08 6.01458e+06 1.17035e+07)
(1.15527e+08 -121622 -991397 1.11396e+08 5.83802e+06 1.06172e+07)
(9.86771e+07 -231004 -4.79008e+06 1.03577e+08 5.15311e+06 1.3179e+06)
(5.50562e+07 -498444 -2.75447e+07 9.71339e+07 5.28781e+06 2.37989e+07)
(5.55663e+07 316266 2.79858e+07 9.98531e+07 3.30117e+06 2.48518e+07)
(9.96495e+07 160563 4.92418e+06 1.06519e+08 3.17178e+06 2.02807e+06)
(1.16817e+08 88877 1.03876e+06 1.14634e+08 3.6703e+06 1.15175e+07)
(1.18703e+08 21532.6 147426 1.15481e+08 3.77912e+06 1.26163e+07)
(1.18909e+08 2814.45 27323.5 1.15546e+08 3.79863e+06 1.26581e+07)
(1.18928e+08 552.568 13772.5 1.15548e+08 3.79986e+06 1.26412e+07)
(1.1893e+08 -1003.1 11706.8 1.1555e+08 3.82337e+06 1.26359e+07)
(1.18936e+08 -1083.13 9071.87 1.1556e+08 3.79265e+06 1.26456e+07)
(1.18934e+08 800.815 6701.53 1.15554e+08 3.79598e+06 1.26426e+07)
(1.18938e+08 -140.018 6106.16 1.15565e+08 3.81805e+06 1.26443e+07)
(1.18935e+08 -1152.14 4247.77 1.15557e+08 3.79458e+06 1.26451e+07)
(1.18945e+08 720.077 -1527.63 1.15574e+08 3.79743e+06 1.26559e+07)
(1.18948e+08 602.857 1842.49 1.1558e+08 3.82002e+06 1.26573e+07)
(1.18937e+08 -1224.98 5389.07 1.15559e+08 3.7951e+06 1.26485e+07)
(1.18938e+08 482.817 48.975 1.15561e+08 3.79097e+06 1.26488e+07)
(1.18939e+08 612.585 -1031.84 1.15565e+08 3.8173e+06 1.26463e+07)
(1.18937e+08 -1009.08 -943.634 1.15558e+08 3.79445e+06 1.26469e+07)
(1.18938e+08 -681.879 -2089.69 1.15562e+08 3.7916e+06 1.26494e+07)
(1.18942e+08 -227.763 -6435.25 1.15569e+08 3.7967e+06 1.26528e+07)
(1.18949e+08 -644.194 -7427.37 1.15581e+08 3.79053e+06 1.26632e+07)
(1.18952e+08 1280.61 -2649.34 1.15586e+08 3.77275e+06 1.26685e+07)
(1.18931e+08 1196.93 -3209.82 1.15549e+08 3.7988e+06 1.26399e+07)
(1.18935e+08 465.496 -8730.68 1.1556e+08 3.79317e+06 1.26446e+07)
(1.18933e+08 1912 -15793 1.15557e+08 3.82219e+06 1.2639e+07)
(1.18936e+08 -904.493 -16869.7 1.15564e+08 3.82653e+06 1.2648e+07)
(1.1892e+08 -4773.91 -21843.3 1.1557e+08 3.79342e+06 1.2667e+07)
(1.18708e+08 -20759.7 -143993 1.1549e+08 3.78085e+06 1.26266e+07)
(1.16818e+08 -88171.9 -1.03968e+06 1.14634e+08 3.67055e+06 1.15235e+07)
(9.96609e+07 -160275 -4.9262e+06 1.06529e+08 3.1711e+06 2.05191e+06)
(5.55655e+07 -317002 -2.79844e+07 9.98483e+07 3.30587e+06 2.48471e+07)
(5.58852e+07 190865 2.82573e+07 1.01555e+08 2.07126e+06 2.54821e+07)
(1.00245e+08 105622 5.01557e+06 1.08338e+08 1.96856e+06 2.44442e+06)
(1.17621e+08 63006.5 1.07235e+06 1.16669e+08 2.29183e+06 1.20688e+07)
(1.19546e+08 15866.6 154844 1.17567e+08 2.38577e+06 1.31886e+07)
(1.19755e+08 2228.75 27753.4 1.17633e+08 2.40044e+06 1.32206e+07)
(1.19783e+08 479.833 13784.1 1.17642e+08 2.401e+06 1.32185e+07)
(1.19782e+08 -659.831 11234.9 1.17636e+08 2.40327e+06 1.32123e+07)
(1.19788e+08 -646.638 8993.48 1.17649e+08 2.3969e+06 1.32197e+07)
(1.19788e+08 450.109 6972.1 1.17647e+08 2.39865e+06 1.32195e+07)
(1.19792e+08 -120.909 6037.85 1.17649e+08 2.4007e+06 1.32309e+07)
(1.19789e+08 -302.498 102.123 1.17648e+08 2.39896e+06 1.32217e+07)
(1.19797e+08 1218.85 2051.11 1.17662e+08 2.39989e+06 1.32311e+07)
(1.19787e+08 -2.59619 5758.18 1.17646e+08 2.42394e+06 1.32173e+07)
(1.1979e+08 -1763.76 1552.5 1.17649e+08 2.39857e+06 1.3223e+07)
(1.19788e+08 175.586 79.8285 1.17647e+08 2.39554e+06 1.3221e+07)
(1.19793e+08 628.92 -700.275 1.1765e+08 2.40013e+06 1.32306e+07)
(1.19789e+08 -621.748 -1219.81 1.17649e+08 2.39812e+06 1.32212e+07)
(1.1979e+08 -574.59 -5760.24 1.1765e+08 2.39596e+06 1.32224e+07)
(1.19807e+08 532.971 -2957.34 1.17674e+08 2.38133e+06 1.32519e+07)
(1.1979e+08 915.567 -4191.94 1.17651e+08 2.41816e+06 1.32215e+07)
(1.19798e+08 288.785 -5522.18 1.17668e+08 2.42017e+06 1.32289e+07)
(1.19787e+08 -371.048 -2711.57 1.17644e+08 2.40137e+06 1.32186e+07)
(1.19788e+08 315.352 -8799.47 1.17649e+08 2.39763e+06 1.32191e+07)
(1.19784e+08 1922.86 -11717.4 1.17639e+08 2.40251e+06 1.32149e+07)
(1.19779e+08 119.329 -13430.3 1.17635e+08 2.42779e+06 1.32132e+07)
(1.1976e+08 -4375.75 -30592 1.17644e+08 2.41997e+06 1.32255e+07)
(1.19557e+08 -16417.9 -154858 1.17584e+08 2.36694e+06 1.32079e+07)
(1.17623e+08 -62422.8 -1.0692e+06 1.1667e+08 2.29113e+06 1.20752e+07)
(1.00247e+08 -105149 -5.0165e+06 1.08339e+08 1.96711e+06 2.44906e+06)
(5.58849e+07 -191347 -2.82571e+07 1.01553e+08 2.07467e+06 2.548e+07)
(5.60904e+07 111905 2.84191e+07 1.02624e+08 1.29906e+06 2.58745e+07)
(1.00618e+08 67200.7 5.0752e+06 1.09461e+08 1.22679e+06 2.70481e+06)
(1.1813e+08 43649.5 1.09646e+06 1.17956e+08 1.44126e+06 1.24194e+07)
(1.20077e+08 11361.8 160342 1.18884e+08 1.50755e+06 1.35511e+07)
(1.20297e+08 1682.98 29028.3 1.18955e+08 1.51869e+06 1.35943e+07)
(1.20322e+08 549.718 13936.5 1.18963e+08 1.51852e+06 1.35834e+07)
(1.20323e+08 -399.811 10927.4 1.18961e+08 1.52025e+06 1.35806e+07)
(1.20327e+08 -427.897 8697.45 1.18968e+08 1.51618e+06 1.35834e+07)
(1.20327e+08 135.051 6968.65 1.18967e+08 1.51717e+06 1.35834e+07)
(1.20331e+08 -105.619 5924.84 1.1897e+08 1.51946e+06 1.3594e+07)
(1.20328e+08 594.416 3484.41 1.18968e+08 1.51759e+06 1.35866e+07)
(1.20328e+08 755.689 2345.43 1.18968e+08 1.53944e+06 1.3584e+07)
(1.20325e+08 -648.171 2349.36 1.1896e+08 1.52216e+06 1.35828e+07)
(1.20329e+08 -1598.64 1077.26 1.18969e+08 1.51754e+06 1.35869e+07)
(1.20333e+08 19.5353 -45.4876 1.18975e+08 1.4972e+06 1.3593e+07)
(1.20327e+08 932.741 -413.53 1.18966e+08 1.51861e+06 1.3584e+07)
(1.20328e+08 -461.138 -1323.85 1.18969e+08 1.5174e+06 1.35852e+07)
(1.20327e+08 625.111 -6055.67 1.18966e+08 1.51565e+06 1.35843e+07)
(1.20337e+08 7.04917 -2830.74 1.18985e+08 1.53936e+06 1.35941e+07)
(1.20331e+08 126.466 -475.176 1.18971e+08 1.49967e+06 1.35922e+07)
(1.20324e+08 688.879 -5138.14 1.18962e+08 1.54016e+06 1.3579e+07)
(1.20327e+08 -749.747 -6062.25 1.18965e+08 1.51894e+06 1.35849e+07)
(1.20327e+08 224.264 -8700.97 1.18968e+08 1.51699e+06 1.35834e+07)
(1.20324e+08 1115.22 -11158.9 1.18962e+08 1.52013e+06 1.3582e+07)
(1.20318e+08 -44.4322 -13566 1.18953e+08 1.52347e+06 1.35806e+07)
(1.20294e+08 -2207.13 -31932.4 1.18954e+08 1.51867e+06 1.35877e+07)
(1.20085e+08 -11995.5 -160454 1.18895e+08 1.52783e+06 1.35625e+07)
(1.18132e+08 -44103.4 -1.09305e+06 1.17957e+08 1.43989e+06 1.24249e+07)
(1.00618e+08 -66530.4 -5.07599e+06 1.09462e+08 1.22544e+06 2.70691e+06)
(5.60906e+07 -112116 -2.84199e+07 1.02626e+08 1.30157e+06 2.58743e+07)
(5.62266e+07 64850.4 2.85132e+07 1.03306e+08 790418 2.61286e+07)
(1.00852e+08 42110.8 5.11231e+06 1.10153e+08 762937 2.87068e+06)
(1.1845e+08 29499.1 1.11331e+06 1.18762e+08 901881 1.26416e+07)
(1.20412e+08 7590.68 164244 1.19711e+08 948045 1.3782e+07)
(1.20636e+08 1183.56 29047.6 1.1979e+08 937118 1.38229e+07)
(1.20662e+08 900.567 14241.9 1.19794e+08 955529 1.38157e+07)
(1.20665e+08 -197.103 10722 1.19794e+08 956444 1.38143e+07)
(1.20666e+08 -270.27 8442.23 1.19798e+08 954340 1.38148e+07)
(1.20666e+08 51.2549 6750.3 1.19797e+08 955194 1.38144e+07)
(1.20666e+08 -126.321 5710.55 1.19797e+08 956392 1.38148e+07)
(1.20668e+08 174.071 3713.12 1.19798e+08 955083 1.38182e+07)
(1.20664e+08 506.928 2697.95 1.19788e+08 957524 1.3814e+07)
(1.20667e+08 -161.982 2315.52 1.19794e+08 958401 1.38183e+07)
(1.20669e+08 -685.062 -2841.61 1.19799e+08 955540 1.38188e+07)
(1.20677e+08 60.2551 -48.2163 1.19813e+08 953968 1.38283e+07)
(1.20668e+08 335.974 3301.18 1.19798e+08 956652 1.38168e+07)
(1.20668e+08 -751.628 -1448.57 1.19799e+08 955724 1.38176e+07)
(1.20672e+08 1043.64 -2613.66 1.19805e+08 936709 1.38231e+07)
(1.20666e+08 730.297 -6146.91 1.19796e+08 978360 1.38143e+07)
(1.20676e+08 -1075.63 -3716.76 1.19811e+08 955783 1.38288e+07)
(1.20668e+08 21.5036 -1497.9 1.19796e+08 941155 1.38199e+07)
(1.20666e+08 36.3059 -6239.11 1.19795e+08 955471 1.38175e+07)
(1.20667e+08 233.024 -8591.12 1.19798e+08 955216 1.38154e+07)
(1.20665e+08 616.509 -10734.8 1.19795e+08 956647 1.38155e+07)
(1.20661e+08 -173.855 -13599.8 1.1979e+08 958638 1.38164e+07)
(1.20634e+08 -1634.53 -29419.1 1.19785e+08 955629 1.38213e+07)
(1.20414e+08 -8694.61 -164848 1.1971e+08 950435 1.37889e+07)
(1.18451e+08 -29777.2 -1.11338e+06 1.18759e+08 900268 1.2645e+07)
(1.00852e+08 -40803.2 -5.11317e+06 1.10153e+08 761970 2.8708e+06)
(5.62232e+07 -64572.6 -2.85148e+07 1.033e+08 811793 2.61205e+07)
(5.6314e+07 37261.4 2.85649e+07 1.03733e+08 498132 2.62867e+07)
(1.00997e+08 24972.6 5.13976e+06 1.10575e+08 468186 2.97368e+06)
(1.18648e+08 19323.2 1.12471e+06 1.1926e+08 556263 1.27798e+07)
(1.20621e+08 5636.37 163739 1.20226e+08 587528 1.39273e+07)
(1.20852e+08 754.925 29409.3 1.20315e+08 592146 1.39731e+07)
(1.20873e+08 240.052 17811.7 1.2031e+08 591761 1.39605e+07)
(1.20877e+08 -14.8114 10622.9 1.20312e+08 592574 1.39599e+07)
(1.20878e+08 -137.901 8289 1.20314e+08 591660 1.39596e+07)
(1.20878e+08 101.238 6741.79 1.20314e+08 592468 1.39594e+07)
(1.20878e+08 -184.833 5594.04 1.20314e+08 593587 1.39607e+07)
(1.20879e+08 -437.656 3798.1 1.20313e+08 591667 1.39627e+07)
(1.20882e+08 406.917 2936.68 1.20317e+08 576227 1.39683e+07)
(1.2088e+08 395.085 2224.54 1.20314e+08 593868 1.39646e+07)
(1.2088e+08 26.7563 337.085 1.20316e+08 592664 1.39638e+07)
(1.2088e+08 65.6923 77.6365 1.20314e+08 610073 1.39632e+07)
(1.2088e+08 -154.579 108.482 1.20315e+08 593481 1.3964e+07)
(1.2088e+08 -81.689 -5063.86 1.20316e+08 593112 1.39641e+07)
(1.20888e+08 587.045 -2413.22 1.2033e+08 592531 1.39729e+07)
(1.20877e+08 521.79 794.073 1.20308e+08 596831 1.39599e+07)
(1.2088e+08 -265.131 -7186.8 1.20314e+08 611232 1.39638e+07)
(1.20887e+08 -693.976 -4901.27 1.20326e+08 595274 1.39733e+07)
(1.20877e+08 -334.222 -2934.32 1.2031e+08 591777 1.39617e+07)
(1.20878e+08 321.927 -8440.44 1.20315e+08 592644 1.39609e+07)
(1.20878e+08 305.43 -10527.9 1.20312e+08 592808 1.39612e+07)
(1.20874e+08 -334.286 -13709.3 1.2031e+08 593773 1.39631e+07)
(1.20844e+08 -1364.41 -33438.3 1.203e+08 591544 1.39663e+07)
(1.20631e+08 -6251.29 -168034 1.20239e+08 571395 1.3945e+07)
(1.18654e+08 -19353.2 -1.12151e+06 1.19267e+08 537382 1.27903e+07)
(1.00997e+08 -24029.7 -5.13549e+06 1.10576e+08 467926 2.97414e+06)
(5.63077e+07 -36664.8 -2.85693e+07 1.03718e+08 498040 2.62734e+07)
(5.636e+07 20905.7 2.85997e+07 1.0397e+08 314653 2.63662e+07)
(1.01085e+08 13928.4 5.14771e+06 1.10829e+08 276023 3.03689e+06)
(1.18769e+08 12007.4 1.13214e+06 1.19561e+08 329727 1.28638e+07)
(1.20747e+08 4017.03 169341 1.20538e+08 349811 1.40158e+07)
(1.20976e+08 195.173 30070.5 1.20618e+08 369733 1.40613e+07)
(1.21001e+08 -160.566 14373.2 1.20622e+08 351443 1.40477e+07)
(1.21006e+08 226.686 10644.1 1.20626e+08 352324 1.40483e+07)
(1.21007e+08 -42.4374 8225.99 1.20628e+08 352115 1.40476e+07)
(1.21007e+08 26.9898 6830.79 1.20627e+08 352758 1.40478e+07)
(1.21011e+08 -345.983 5535.7 1.20631e+08 353446 1.40573e+07)
(1.21007e+08 115.254 314.476 1.20625e+08 351673 1.40495e+07)
(1.21017e+08 470.107 3148.99 1.20642e+08 353635 1.40628e+07)
(1.21009e+08 -97.1361 5615.66 1.20629e+08 353498 1.40526e+07)
(1.21009e+08 -577.897 235.305 1.20629e+08 352938 1.40518e+07)
(1.2101e+08 -76.28 189.119 1.20628e+08 335340 1.40543e+07)
(1.21012e+08 489.807 250.947 1.20631e+08 352974 1.40606e+07)
(1.21013e+08 727.796 -1647.55 1.20633e+08 353387 1.40605e+07)
(1.2101e+08 401.703 -2203.08 1.20632e+08 371510 1.40525e+07)
(1.21007e+08 -833.652 -2599.12 1.20625e+08 355622 1.40516e+07)
(1.2101e+08 478.03 -3824.29 1.20629e+08 336301 1.40552e+07)
(1.2101e+08 -422.53 -5005.39 1.20631e+08 373058 1.40545e+07)
(1.21011e+08 -833.798 -6472.03 1.20632e+08 334392 1.40558e+07)
(1.21008e+08 601.339 -8360.5 1.20628e+08 353180 1.40502e+07)
(1.21006e+08 113.491 -10485.9 1.20626e+08 352343 1.40494e+07)
(1.21003e+08 -647.308 -13816.2 1.20626e+08 353073 1.40519e+07)
(1.20978e+08 14.4504 -33810 1.20623e+08 334072 1.40614e+07)
(1.20758e+08 -3044.74 -173837 1.20554e+08 368717 1.40313e+07)
(1.1878e+08 -12922.1 -1.12904e+06 1.19578e+08 329182 1.2879e+07)
(1.01086e+08 -14215.4 -5.14481e+06 1.10829e+08 275830 3.03873e+06)
(5.63593e+07 -20595.3 -2.8598e+07 1.03971e+08 295121 2.63637e+07)
(5.63895e+07 10787.5 2.86171e+07 1.04113e+08 135679 2.64189e+07)
(1.01134e+08 7951.24 5.15516e+06 1.1097e+08 144438 3.07056e+06)
(1.18836e+08 6463.65 1.13662e+06 1.19731e+08 173396 1.29112e+07)
(1.20823e+08 1382.05 171260 1.20718e+08 184281 1.40746e+07)
(1.21044e+08 -333.518 29473 1.2079e+08 167441 1.41022e+07)
(1.21079e+08 716.671 14592.6 1.20809e+08 167464 1.41035e+07)
(1.21079e+08 634.837 10745.9 1.20805e+08 185553 1.40986e+07)
(1.21079e+08 12.9588 8217.81 1.20805e+08 185688 1.40974e+07)
(1.2108e+08 -61.8122 6685.84 1.20805e+08 186132 1.4098e+07)
(1.2108e+08 -689.314 5235.22 1.20805e+08 185682 1.40985e+07)
(1.21084e+08 712.562 3969.83 1.20811e+08 167899 1.4105e+07)
(1.21084e+08 755.845 3367.39 1.20809e+08 204650 1.41052e+07)
(1.21081e+08 -610.642 2118.61 1.20806e+08 186885 1.41027e+07)
(1.21082e+08 -142.284 -3325.34 1.20807e+08 186349 1.41019e+07)
(1.21088e+08 -251.827 -42.3856 1.20818e+08 186032 1.41104e+07)
(1.21081e+08 38.6411 3717.27 1.20805e+08 184686 1.41005e+07)
(1.21081e+08 545.521 -1293.68 1.20806e+08 186150 1.41015e+07)
(1.21079e+08 237.474 -1860.41 1.20801e+08 187404 1.40987e+07)
(1.21085e+08 -81.6781 -5991.62 1.20808e+08 187146 1.41107e+07)
(1.21089e+08 223.549 -3762.06 1.20819e+08 187163 1.41119e+07)
(1.21084e+08 -312.459 -5267.56 1.20805e+08 187964 1.41096e+07)
(1.21088e+08 -410.309 -6609.91 1.20819e+08 185305 1.41105e+07)
(1.21084e+08 3.54483 -5176.35 1.2081e+08 186342 1.41085e+07)
(1.21078e+08 86.7245 -10525.2 1.20803e+08 185050 1.40985e+07)
(1.21077e+08 1.3501 -17333.4 1.20805e+08 186177 1.41024e+07)
(1.21056e+08 497.42 -30548.1 1.20811e+08 185070 1.41172e+07)
(1.2082e+08 -1232.37 -167903 1.20713e+08 203503 1.40707e+07)
(1.18841e+08 -7683 -1.13716e+06 1.19737e+08 191542 1.29175e+07)
(1.01134e+08 -8014.57 -5.15524e+06 1.10969e+08 143391 3.07202e+06)
(5.63884e+07 -10539.5 -2.86173e+07 1.04113e+08 155812 2.64146e+07)
(5.64073e+07 3364.85 2.86217e+07 1.04191e+08 48811.4 2.64513e+07)
(1.01156e+08 2169.21 5.16365e+06 1.11034e+08 44752.8 3.08429e+06)
(1.18867e+08 1924.34 1.13854e+06 1.19807e+08 53944.3 1.29322e+07)
(1.20851e+08 105.895 167482 1.20794e+08 56608.6 1.40882e+07)
(1.21089e+08 248.265 26125 1.20893e+08 40357.7 1.41378e+07)
(1.21117e+08 495.369 18105.7 1.209e+08 57615.8 1.41321e+07)
(1.21112e+08 11.8696 14308.3 1.20886e+08 57434.7 1.41214e+07)
(1.21112e+08 30.2204 8239.82 1.20886e+08 57712.7 1.412e+07)
(1.21113e+08 -21.6308 6599.49 1.20886e+08 57876.8 1.41208e+07)
(1.21113e+08 -45.281 1667.86 1.20886e+08 57696.1 1.41207e+07)
(1.21122e+08 183.929 4112.89 1.20901e+08 57795 1.41334e+07)
(1.21112e+08 -30.2849 7002.87 1.20881e+08 58353.7 1.41231e+07)
(1.21118e+08 -139.339 2087.43 1.20889e+08 57867.6 1.41335e+07)
(1.21115e+08 439.925 -65.4179 1.20888e+08 58138.9 1.41243e+07)
(1.21115e+08 -367.868 -285.917 1.20886e+08 75444.6 1.41244e+07)
(1.21112e+08 -441.559 395.686 1.20883e+08 56471.3 1.41204e+07)
(1.21118e+08 435.573 -954.756 1.2089e+08 57948.7 1.41317e+07)
(1.21113e+08 143.539 -1942.06 1.20884e+08 58477.5 1.41228e+07)
(1.21114e+08 643.758 -2633.26 1.20886e+08 57657.2 1.41239e+07)
(1.21116e+08 81.6471 -3662.35 1.2089e+08 76519.4 1.41274e+07)
(1.21113e+08 -357.455 -5302.67 1.20884e+08 58573.6 1.41241e+07)
(1.21114e+08 -180.255 -6709.37 1.20886e+08 75117.9 1.41242e+07)
(1.21113e+08 -591.459 -8318.69 1.20887e+08 57596.1 1.41225e+07)
(1.2111e+08 76.6624 -10348.4 1.20882e+08 56625 1.41198e+07)
(1.2111e+08 653.737 -13899.6 1.20886e+08 57834.8 1.4126e+07)
(1.21081e+08 106.251 -30560.6 1.20877e+08 75084.7 1.41311e+07)
(1.20849e+08 -720.294 -171799 1.20786e+08 58096.9 1.40888e+07)
(1.18867e+08 -3058.06 -1.13973e+06 1.19805e+08 55112.3 1.29342e+07)
(1.01155e+08 -2713.77 -5.15843e+06 1.11029e+08 43115.5 3.08528e+06)