/*--------------------------------*- C++ -*----------------------------------*\
| =========                 |                                                 |
| \\      /  F ield         | OpenFOAM: The Open Source CFD Toolbox           |
|  \\    /   O peration     | Version:  2106                                  |
|   \\  /    A nd           | Website:  www.openfoam.com                      |
|    \\/     M anipulation  |                                                 |
\*---------------------------------------------------------------------------*/
FoamFile
{
    version     2.0;
    format      ascii;
    arch        "LSB;label=32;scalar=64";
    class       volTensorField;
    location    "869";
    object      testEpsilon;
}
// * * * * * * * * * * * * * * * * * * * * * * * * * * * * * * * * * * * * * //

dimensions      [0 0 0 0 0 0 0];

internalField   nonuniform List<tensor> 
9000
(
(-0.0855805 0.00384539 -0.105451 -0.00437237 -0.147115 -0.257495 0.201774 0.380309 -0.0253745)
(-0.0167732 0.00368763 -0.00285507 -0.00261196 -0.156475 -0.270369 0.0216224 0.400625 -0.0697522)
(-0.00192932 0.00248207 0.00204131 -0.00181056 -0.166386 -0.287059 0.00308966 0.425372 -0.0595166)
(-0.000321089 0.000467176 0.000324723 -0.000365906 -0.167997 -0.29083 0.000577965 0.430921 -0.0573947)
(-5.53375e-05 -3.88323e-05 -2.84168e-05 2.29343e-05 -0.168079 -0.290942 0.000107313 0.431085 -0.057407)
(-3.86772e-06 -2.32669e-05 -1.51729e-05 1.91484e-05 -0.167897 -0.290164 4.99422e-05 0.429884 -0.0576815)
(-1.29165e-06 -1.32266e-06 -3.14574e-07 1.2484e-06 -0.168021 -0.29072 5.09729e-05 0.430767 -0.057567)
(6.76624e-08 -3.10697e-05 -1.88359e-05 1.92352e-05 -0.167889 -0.29015 3.41204e-05 0.429872 -0.0576819)
(-9.1334e-07 3.98607e-05 2.54126e-05 -2.69605e-05 -0.167887 -0.290141 3.70409e-05 0.429856 -0.0576894)
(-6.55025e-06 1.73742e-05 8.74575e-06 -4.11746e-06 -0.168061 -0.290829 -2.3721e-05 0.430919 -0.0574712)
(2.42751e-06 -6.45723e-05 -4.46446e-05 5.20396e-05 -0.167943 -0.290389 -5.34781e-05 0.430244 -0.0575982)
(7.8604e-06 1.75537e-05 1.37631e-05 -1.8633e-05 -0.167761 -0.289678 6.57093e-05 0.429153 -0.0578378)
(-4.59228e-06 6.00759e-05 4.13553e-05 -4.91717e-05 -0.16805 -0.290775 7.65184e-05 0.430841 -0.0574994)
(-4.35845e-06 -1.20317e-05 -1.08384e-05 1.36896e-05 -0.168067 -0.290781 -4.95303e-05 0.430865 -0.057488)
(3.42411e-06 6.12885e-06 3.96727e-06 -4.40289e-06 -0.167955 -0.290435 -2.54607e-07 0.430309 -0.0575821)
(-2.63334e-06 1.29602e-05 1.08337e-05 -1.53329e-05 -0.168064 -0.290838 5.01153e-05 0.430932 -0.0574731)
(-2.17059e-06 -1.8507e-05 -1.44459e-05 1.91853e-05 -0.168065 -0.290777 -5.81981e-05 0.430859 -0.0574928)
(2.86792e-09 1.45758e-06 1.53882e-06 5.54471e-08 -0.167958 -0.290445 -7.79598e-06 0.430323 -0.0575733)
(-2.16649e-06 -4.4722e-05 -2.81996e-05 3.13926e-05 -0.168052 -0.290796 -2.14231e-05 0.430873 -0.0574874)
(4.65827e-06 -4.11047e-05 -2.65622e-05 2.83565e-05 -0.167773 -0.289723 -2.67342e-05 0.429217 -0.0578018)
(2.76999e-06 5.965e-05 4.05565e-05 -4.80082e-05 -0.167874 -0.290095 3.89428e-05 0.429797 -0.0577147)
(-5.67897e-06 4.60798e-05 2.95667e-05 -3.30012e-05 -0.16806 -0.290813 -1.58581e-05 0.43089 -0.0574854)
(-3.47092e-06 -3.46175e-05 -2.19751e-05 2.28608e-05 -0.168065 -0.290843 -4.18893e-05 0.430939 -0.0574675)
(1.22456e-07 -7.11862e-06 -4.13264e-06 5.49943e-06 -0.167901 -0.290181 -4.86271e-05 0.429912 -0.057668)
(-7.74089e-06 1.21189e-05 6.88872e-06 -8.80018e-06 -0.168053 -0.290785 -5.48318e-05 0.430852 -0.0574943)
(-5.38714e-05 -2.20931e-05 -1.34214e-05 2.59734e-05 -0.167913 -0.290279 -0.000172404 0.430061 -0.057604)
(-0.000314523 -0.000438675 -0.000306296 0.000347297 -0.167867 -0.29035 -0.000573086 0.430191 -0.0575375)
(-0.00192992 -0.00245483 -0.0020218 0.00178377 -0.166381 -0.286977 -0.0030337 0.425266 -0.0595433)
(-0.016776 -0.00367973 0.00286024 0.00260595 -0.156473 -0.270362 -0.0216242 0.400617 -0.0697537)
(-0.0855798 -0.00384734 0.105452 0.00437417 -0.147115 -0.257482 -0.201778 0.380287 -0.02538)
(-0.0724033 0.00189544 -0.10317 -0.00191795 -0.0980713 -0.0790744 0.196127 0.215439 -0.128992)
(-0.0163972 0.00216338 -0.00426104 -0.00079829 -0.103197 -0.0826093 0.02031 0.226105 -0.175005)
(-0.00180222 0.00153326 0.000977717 -0.000667896 -0.109234 -0.087637 0.00210653 0.240105 -0.17132)
(-0.000206432 0.000315961 0.00011916 -0.000174027 -0.1104 -0.0888302 0.000339164 0.243614 -0.170637)
(-2.73451e-05 -1.72361e-05 1.2006e-06 4.59266e-06 -0.110423 -0.0888678 6.28231e-05 0.243718 -0.170683)
(-4.45048e-06 -1.66147e-05 -2.59428e-06 1.00807e-05 -0.110203 -0.0886817 6.46949e-05 0.243398 -0.170699)
(-2.05609e-06 3.21229e-07 1.22259e-06 6.90931e-07 -0.11037 -0.0887946 5.00794e-05 0.243533 -0.17071)
(-1.45628e-06 -1.00537e-05 5.91599e-06 6.62453e-06 -0.110179 -0.0886802 -1.14432e-05 0.243406 -0.170696)
(-7.39422e-07 1.50749e-05 -5.58318e-06 -1.09495e-05 -0.11018 -0.0886788 7.39252e-05 0.24339 -0.170702)
(-1.19389e-06 1.07017e-05 -1.97743e-06 3.74273e-06 -0.110394 -0.08883 6.9626e-05 0.243594 -0.170707)
(-4.57514e-07 -2.11045e-05 8.82583e-06 2.7749e-05 -0.110296 -0.0887373 -3.17404e-05 0.243851 -0.170677)
(8.35387e-08 3.82424e-07 -3.77963e-06 -1.21538e-05 -0.110076 -0.0885738 1.24845e-05 0.243617 -0.170667)
(-1.08644e-06 1.47397e-05 -7.98316e-06 -2.87129e-05 -0.110393 -0.0888017 5.5543e-05 0.243531 -0.17071)
(-7.9972e-07 3.53167e-06 3.859e-06 9.08692e-06 -0.11037 -0.0888006 -2.59158e-07 0.243259 -0.170691)
(1.18902e-07 7.626e-06 -7.72569e-07 -1.20745e-07 -0.110309 -0.0887534 -2.16058e-06 0.243894 -0.17068)
(-3.79327e-07 -5.27013e-06 -2.48312e-06 -1.27588e-05 -0.110397 -0.0888342 -1.66179e-06 0.243607 -0.17071)
(-2.43357e-07 -2.09053e-06 3.29464e-06 1.24216e-05 -0.110368 -0.0887998 -4.9664e-06 0.243257 -0.170693)
(-1.77368e-07 4.3117e-06 -9.06529e-07 3.29826e-06 -0.110313 -0.0887566 -6.07665e-06 0.2439 -0.170676)
(-7.62529e-07 -1.81944e-05 5.52361e-06 1.38944e-05 -0.110384 -0.0888175 -5.48352e-05 0.243562 -0.170711)
(-7.84089e-07 -1.58944e-05 6.05431e-06 1.20504e-05 -0.110083 -0.0885905 -6.19182e-05 0.243675 -0.170665)
(-7.82686e-07 1.66382e-05 -9.95285e-06 -2.49481e-05 -0.110164 -0.0886584 1.94281e-05 0.243345 -0.170691)
(-9.3242e-07 1.9265e-05 -5.8567e-06 -1.54166e-05 -0.110405 -0.0888198 1.58945e-05 0.243564 -0.170713)
(-1.09166e-06 -1.10708e-05 6.48767e-06 8.90277e-06 -0.110397 -0.0888355 -8.15321e-05 0.24361 -0.170708)
(-1.53749e-06 -6.12532e-06 -1.21049e-06 2.64889e-06 -0.110196 -0.088695 -4.43166e-05 0.243426 -0.170693)
(-5.14014e-06 1.02637e-05 2.10479e-06 -3.42075e-06 -0.110398 -0.0888116 -5.96968e-05 0.243536 -0.17071)
(-2.77052e-05 -1.53952e-06 7.44147e-06 2.13992e-05 -0.110214 -0.0887217 -0.000108513 0.243538 -0.170668)
(-0.000206189 -0.000311846 -0.000124869 0.000164921 -0.110289 -0.0887213 -0.000292722 0.243831 -0.170606)
(-0.00180236 -0.00152546 -0.000980846 0.00065015 -0.109198 -0.0875937 -0.0021073 0.239741 -0.171319)
(-0.0163972 -0.00215528 0.00426068 0.000796866 -0.103195 -0.0826061 -0.0203149 0.226098 -0.175003)
(-0.0724022 -0.00189797 0.10317 0.00192042 -0.0980749 -0.0790738 -0.196128 0.215418 -0.128992)
(-0.0763045 -0.00107796 -0.104036 0.00342343 -0.0575535 -0.00938264 0.197526 0.125711 -0.153406)
(-0.0165232 0.00145509 -0.0045676 0.000287841 -0.0602169 -0.0111291 0.0202961 0.132422 -0.201966)
(-0.00180447 0.0010413 0.000797137 -2.23255e-06 -0.0633661 -0.0116301 0.0019378 0.141065 -0.199928)
(-0.000186592 0.000229423 7.85721e-05 -3.29596e-05 -0.0641023 -0.011795 0.000259213 0.143584 -0.199627)
(-1.85159e-05 7.44789e-07 1.26657e-06 -2.50857e-06 -0.0641043 -0.0118059 0.000110193 0.143681 -0.199687)
(-4.64807e-06 -1.26386e-05 -5.39912e-07 2.31919e-06 -0.0639984 -0.0118167 6.94973e-05 0.143911 -0.199647)
(-1.98289e-06 3.4663e-06 -1.34911e-08 8.91816e-07 -0.0640744 -0.0117936 4.95719e-05 0.143546 -0.199696)
(-2.26042e-06 6.91816e-06 4.31436e-06 2.04196e-06 -0.063992 -0.0118335 3.95761e-05 0.144122 -0.199667)
(-1.4897e-06 -3.28977e-06 -4.53985e-06 -2.4335e-06 -0.0640004 -0.0118255 2.032e-05 0.1441 -0.199671)
(1.18946e-06 -5.96021e-06 -2.94569e-06 3.96125e-07 -0.0640766 -0.0117965 2.15491e-05 0.143591 -0.199701)
(-7.51796e-07 -8.42269e-07 6.59975e-06 7.27779e-06 -0.0640651 -0.011813 3.04284e-05 0.143557 -0.199687)
(-3.43198e-06 -1.73391e-06 8.86017e-07 -3.66679e-06 -0.0639771 -0.0118413 8.64711e-06 0.144078 -0.199649)
(-3.4414e-07 1.24281e-06 -4.00255e-06 -8.12557e-06 -0.0640561 -0.0117851 -3.58488e-05 0.143359 -0.199657)
(1.35997e-06 4.79973e-06 -1.18919e-06 2.89429e-06 -0.064008 -0.0117994 2.37141e-06 0.1436 -0.199683)
(-9.45043e-07 6.38494e-07 -2.75858e-06 4.06826e-07 -0.06407 -0.0118126 2.68961e-05 0.143589 -0.199691)
(-1.24875e-07 1.02678e-06 1.55219e-06 -3.15753e-06 -0.0640783 -0.0117989 -3.56135e-05 0.143605 -0.199703)
(1.04083e-06 -1.63193e-06 1.07541e-06 2.55837e-06 -0.0640076 -0.0118003 -7.46536e-07 0.143598 -0.199686)
(2.97445e-07 -1.70446e-06 -1.99492e-06 2.27309e-06 -0.0640722 -0.0118128 2.50396e-05 0.143588 -0.199691)
(-4.16059e-07 1.18097e-06 5.02176e-06 3.48721e-06 -0.0640704 -0.0117907 5.55261e-07 0.143565 -0.1997)
(-3.11023e-06 2.95325e-06 5.26997e-06 2.65511e-06 -0.0639811 -0.0118471 -7.10196e-06 0.144094 -0.199653)
(-2.72342e-06 -4.6526e-06 -5.29816e-06 -6.38316e-06 -0.0639824 -0.0118286 -3.75224e-05 0.144105 -0.199657)
(1.0912e-06 -5.55414e-07 -5.85406e-06 -4.52866e-06 -0.0640674 -0.0117854 -4.07523e-05 0.143378 -0.199683)
(1.42183e-07 7.1637e-06 2.98394e-06 3.04013e-06 -0.0640769 -0.0117985 -2.87411e-05 0.143607 -0.199703)
(-2.34225e-06 -7.32744e-06 6.41486e-07 -6.10923e-07 -0.0640111 -0.0118322 -4.2347e-05 0.144121 -0.199667)
(-3.99082e-06 8.47251e-06 1.54702e-06 -3.84125e-07 -0.0640717 -0.0117828 -6.07036e-05 0.143356 -0.199676)
(-2.02031e-05 -2.6619e-07 4.62727e-06 9.53178e-06 -0.064024 -0.0118382 -9.6039e-05 0.144209 -0.199649)
(-0.000188773 -0.000235353 -8.07004e-05 3.062e-05 -0.0640793 -0.0118068 -0.000296001 0.143521 -0.199609)
(-0.00180353 -0.00103602 -0.000798753 -2.50878e-06 -0.063293 -0.0116222 -0.00194984 0.141018 -0.199916)
(-0.0165219 -0.00145518 0.00456422 -0.000288824 -0.0602148 -0.0111279 -0.0202717 0.132417 -0.201963)
(-0.0763017 0.00107328 0.104033 -0.00341832 -0.0575628 -0.00937921 -0.197523 0.125682 -0.153408)
(-0.0818776 -0.00282237 -0.107651 0.00645326 -0.0351662 0.00543961 0.204387 0.076377 -0.154296)
(-0.0170824 0.00100086 -0.00471053 0.000759692 -0.0372327 0.00345645 0.0209844 0.0810762 -0.205378)
(-0.00186638 0.000756179 0.000844536 0.000233762 -0.0391077 0.00393203 0.00212977 0.0872843 -0.203493)
(-0.000206487 0.000168328 8.39914e-05 3.25993e-05 -0.0396308 0.00401791 0.000294974 0.0889556 -0.203202)
(-2.02894e-05 3.53246e-06 -3.13389e-06 -5.05928e-06 -0.03964 0.00401801 8.49433e-05 0.0890483 -0.203268)
(-3.7704e-06 -1.06423e-05 -1.26276e-07 -2.87628e-06 -0.0395809 0.00398835 7.01831e-05 0.0888713 -0.203236)
(-2.11154e-06 1.61642e-06 -2.14292e-06 9.10526e-07 -0.0396051 0.0040156 6.86396e-05 0.0888191 -0.203264)
(-2.12134e-06 4.75034e-06 -4.6279e-07 -1.67615e-06 -0.0396222 0.00398592 3.8296e-05 0.0890174 -0.203286)
(-1.06859e-06 -1.85995e-06 1.82495e-06 2.84923e-06 -0.0396165 0.00399153 2.30818e-05 0.0888646 -0.203248)
(7.48367e-07 -2.23242e-06 5.26558e-07 2.89241e-06 -0.0396145 0.0040164 2.28642e-05 0.088986 -0.20328)
(-1.2701e-06 -1.19346e-06 -1.41969e-07 -2.7911e-06 -0.0396095 0.004011 2.96352e-05 0.0889644 -0.203277)
(-2.99713e-06 2.16987e-06 1.79693e-06 -6.66825e-07 -0.039614 0.00398054 -1.08202e-05 0.0889772 -0.203254)
(2.25773e-07 8.56384e-06 3.89632e-07 3.32964e-06 -0.0395689 0.00400158 -7.48199e-06 0.0890022 -0.20326)
(9.06758e-07 7.47634e-07 -1.64451e-06 1.32458e-06 -0.0395899 0.00399302 2.25518e-05 0.0893404 -0.203286)
(-1.09146e-06 -6.45213e-06 -6.5563e-07 -5.00118e-07 -0.0396074 0.00401095 -8.39729e-07 0.0889928 -0.203279)
(5.09829e-08 7.21098e-06 -2.7239e-08 9.92624e-07 -0.0396158 0.00401346 -7.63179e-06 0.0890015 -0.203284)
(8.42768e-07 -8.55319e-07 4.96699e-07 -3.57206e-07 -0.0395907 0.00399297 -1.00774e-06 0.0893378 -0.203289)
(8.39828e-09 -8.24392e-06 1.02834e-06 -2.21403e-07 -0.0396076 0.00401079 -1.64753e-06 0.0889924 -0.20328)
(-6.86125e-07 2.07804e-08 -1.31772e-06 -3.15326e-06 -0.0396114 0.00401892 -1.62378e-06 0.0889652 -0.203258)
(-2.75816e-06 1.70234e-06 -1.52943e-06 -3.2003e-06 -0.0396158 0.00398028 -9.94579e-06 0.0889994 -0.20328)
(-2.21944e-06 -6.32618e-07 2.37243e-06 2.87542e-06 -0.0396177 0.00398457 -5.49445e-05 0.0889983 -0.203261)
(9.52237e-07 3.67367e-07 1.52519e-07 2.79636e-06 -0.0395798 0.00401271 -3.96592e-05 0.0889795 -0.203252)
(-3.0811e-07 1.95521e-07 -2.86945e-06 -2.70346e-06 -0.0396122 0.00401451 -1.06376e-05 0.0890058 -0.203284)
(-2.22234e-06 -5.09141e-06 1.93825e-06 -2.58167e-06 -0.0396215 0.0039913 -6.24134e-05 0.0888733 -0.20327)
(-3.1116e-06 7.68645e-06 9.07566e-07 2.03404e-06 -0.0395743 0.00401281 -6.09946e-05 0.0888273 -0.203228)
(-2.15044e-05 -3.05177e-06 2.64348e-06 3.43366e-06 -0.0396476 0.00398905 -7.16991e-05 0.0890746 -0.203264)
(-0.000208597 -0.000165642 -8.16715e-05 -2.97631e-05 -0.0396171 0.00401103 -0.000300544 0.0889112 -0.203192)
(-0.00186624 -0.000752553 -0.000845071 -0.000232498 -0.0390838 0.00391272 -0.00214436 0.0875883 -0.203466)
(-0.0170804 -0.00100923 0.00470928 -0.00076202 -0.0372312 0.00345675 -0.0209904 0.081073 -0.205375)
(-0.0818818 0.00281385 0.107647 -0.00644334 -0.0351568 0.00544508 -0.204379 0.0762179 -0.154282)
(-0.0860581 -0.00311436 -0.112076 0.00667126 -0.0220578 0.00482864 0.212813 0.0479384 -0.152289)
(-0.0177671 0.000666782 -0.00486911 0.000874755 -0.023578 0.00285457 0.0219706 0.0506923 -0.205729)
(-0.00194989 0.000561683 0.000909429 0.000263327 -0.0249318 0.00331624 0.00240739 0.0554667 -0.203766)
(-0.000234356 0.000122963 9.57681e-05 4.96824e-05 -0.025287 0.0034042 0.000324024 0.056517 -0.203434)
(-2.5611e-05 1.07272e-05 -4.6459e-06 6.29971e-08 -0.025288 0.00340689 8.45893e-05 0.0564945 -0.203494)
(-3.45411e-06 -5.64936e-06 -1.02029e-06 -3.81502e-06 -0.0252438 0.0033891 4.82307e-05 0.0568009 -0.203526)
(-1.74286e-06 -4.80143e-06 -5.00581e-07 -8.79911e-07 -0.0252444 0.00339959 6.47376e-05 0.0564364 -0.203504)
(-1.87268e-06 4.63845e-06 -5.01082e-07 -1.78406e-07 -0.025282 0.00340776 3.60481e-05 0.0565777 -0.203529)
(-5.75988e-07 -1.75248e-06 1.55713e-06 1.42828e-06 -0.0252557 0.00339974 2.58261e-05 0.0565882 -0.203517)
(6.13887e-08 -4.56189e-06 9.48067e-07 1.4132e-07 -0.0252848 0.00340232 4.13572e-05 0.0565623 -0.203503)
(-1.46364e-06 -7.38383e-07 -5.71803e-07 -3.40986e-06 -0.0252666 0.00340186 2.5225e-05 0.056441 -0.203507)
(-2.20783e-06 6.39529e-06 -9.97026e-07 1.53888e-06 -0.0252823 0.00340501 8.35832e-06 0.05656 -0.203512)
(5.41409e-08 6.06451e-06 -1.5063e-06 3.77806e-06 -0.0252721 0.0033847 -3.64518e-06 0.0567754 -0.203531)
(5.94023e-07 -2.90075e-06 6.85265e-07 4.72625e-07 -0.0252993 0.00339564 3.89255e-06 0.0566203 -0.203527)
(-1.01143e-06 -4.54856e-06 1.32771e-06 2.6671e-07 -0.0252769 0.00340165 2.42452e-07 0.05657 -0.203521)
(-9.62928e-08 4.36458e-06 -2.04483e-06 7.22495e-07 -0.0252873 0.00340354 -7.03656e-06 0.0565709 -0.203522)
(7.98024e-07 8.03219e-09 5.42955e-07 -6.68951e-07 -0.0252999 0.00339647 -2.33929e-06 0.056617 -0.203529)
(-2.61766e-07 -5.84647e-06 3.19503e-06 -1.05109e-06 -0.0252765 0.00340111 -1.20699e-06 0.0565701 -0.203522)
(-1.01184e-06 -4.60434e-07 -1.08176e-06 -2.97679e-06 -0.0252843 0.0034011 -5.76946e-06 0.0565602 -0.203493)
(-1.90449e-06 1.69366e-06 -1.60036e-06 -1.90141e-06 -0.0252812 0.00340467 -1.37337e-05 0.0565654 -0.203524)
(-1.52409e-06 2.56291e-06 1.18811e-06 2.93366e-06 -0.0252817 0.00340451 -3.04165e-05 0.0565769 -0.203519)
(-2.45722e-08 5.44752e-07 1.35685e-07 3.22363e-06 -0.0252599 0.00338796 -3.49339e-05 0.056674 -0.203519)
(-9.33422e-07 -1.18357e-06 -1.29852e-06 -1.10473e-06 -0.0252786 0.00340149 -4.90781e-05 0.0565799 -0.203525)
(-1.39475e-06 2.50757e-07 3.00275e-07 -2.23822e-06 -0.0252633 0.00340891 -6.06806e-05 0.0565708 -0.203518)
(-2.78775e-06 3.25184e-06 1.09772e-06 1.73573e-06 -0.0252399 0.00338231 -4.10114e-05 0.056663 -0.203506)
(-2.65625e-05 -8.83034e-06 4.27166e-06 -7.75119e-07 -0.0253027 0.00340868 -7.45026e-05 0.0566113 -0.203503)
(-0.000235959 -0.000122592 -9.59663e-05 -5.02846e-05 -0.0252853 0.00340698 -0.000327748 0.0564784 -0.203423)
(-0.00194998 -0.000558837 -0.00090961 -0.000260419 -0.0249488 0.00330312 -0.00241632 0.0555074 -0.203761)
(-0.0177641 -0.000669769 0.0048707 -0.000874004 -0.0235773 0.00285508 -0.0219973 0.0506886 -0.205727)
(-0.086065 0.00310933 0.112051 -0.00666229 -0.0220258 0.00482592 -0.212763 0.0479215 -0.15228)
(-0.0887426 -0.00259481 -0.115936 0.00539144 -0.0139502 0.00256121 0.22017 0.0303719 -0.151263)
(-0.0183639 0.000426059 -0.00501301 0.000792336 -0.0148823 0.000987803 0.022917 0.0317679 -0.206543)
(-0.00203139 0.000414381 0.000954462 0.000225442 -0.0159393 0.00130451 0.00266752 0.0350666 -0.20448)
(-0.00025914 9.70814e-05 0.000102121 5.03904e-05 -0.0161925 0.00135438 0.00036338 0.0360742 -0.204176)
(-3.09889e-05 1.2155e-05 -6.1531e-06 3.60631e-06 -0.0161812 0.00135534 0.000101752 0.0361549 -0.204246)
(-3.95898e-06 -1.91446e-06 -1.58667e-06 -3.09456e-06 -0.0161987 0.00134836 6.0958e-05 0.0363206 -0.204285)
(-1.38422e-06 -6.00598e-06 1.58856e-06 -1.72112e-06 -0.0161535 0.00134639 4.7575e-05 0.0361745 -0.204265)
(-1.6597e-06 2.48443e-06 -4.31871e-07 5.71182e-07 -0.0161935 0.00135803 4.98297e-05 0.0361383 -0.204273)
(-1.00464e-06 -2.42692e-06 7.37523e-07 -9.24772e-07 -0.016186 0.00134962 2.65074e-05 0.0362886 -0.204284)
(-2.19261e-07 -4.40413e-06 9.50093e-07 -1.34585e-06 -0.016186 0.00134889 9.94784e-06 0.0360441 -0.204259)
(-9.90585e-07 -6.89845e-07 3.95022e-07 -2.60042e-06 -0.0161652 0.00134896 2.17625e-05 0.0361244 -0.204263)
(-1.55955e-06 1.05835e-06 -1.63626e-06 -7.93892e-07 -0.0161877 0.00135247 2.36203e-05 0.0360359 -0.204236)
(1.25215e-08 5.15331e-06 -1.48441e-06 4.52586e-06 -0.0162054 0.00135133 3.02494e-07 0.0360595 -0.204261)
(2.04488e-07 -2.13186e-07 1.74541e-06 1.92956e-06 -0.0162058 0.00136081 5.22851e-06 0.0361608 -0.204271)
(-1.04149e-06 -4.03887e-06 9.25036e-07 -1.04859e-06 -0.0161923 0.00135305 9.57082e-07 0.0361326 -0.204267)
(-1.36149e-07 2.61571e-06 -1.06156e-06 1.1023e-06 -0.0161898 0.00135389 -6.43715e-06 0.0360388 -0.204258)
(4.8805e-07 1.28785e-06 1.03729e-08 3.39171e-07 -0.0162058 0.00136155 -3.14556e-06 0.0361568 -0.204273)
(-4.53169e-07 -5.12867e-06 1.9535e-06 -3.3839e-06 -0.0161917 0.00135282 -2.8804e-06 0.0361344 -0.204269)
(-8.56188e-07 -9.10035e-07 -6.04501e-07 -2.06655e-06 -0.0161893 0.00134373 -8.51554e-06 0.0360448 -0.204237)
(-1.57607e-06 2.23406e-06 -8.48247e-07 4.50697e-07 -0.0161983 0.00135824 -1.45598e-05 0.0361259 -0.204268)
(-1.19443e-06 3.62682e-06 -9.71248e-07 2.29928e-06 -0.0162013 0.00135643 -4.27296e-05 0.0361337 -0.204248)
(1.4456e-07 9.9277e-07 -4.5002e-07 2.78691e-06 -0.0161824 0.00134609 -3.19218e-05 0.0361637 -0.204271)
(-1.40048e-06 -4.73831e-07 1.32166e-06 -3.37516e-07 -0.0161923 0.00135263 -1.77558e-05 0.036141 -0.204273)
(-1.65425e-06 2.64679e-06 -1.89884e-06 -1.29478e-06 -0.0161834 0.00135227 -6.08933e-05 0.0361924 -0.204252)
(-2.81898e-06 -2.06171e-07 8.61476e-07 1.06076e-06 -0.0161746 0.00134035 -5.60047e-05 0.0362084 -0.204266)
(-3.19085e-05 -1.21353e-05 7.5776e-06 -4.4074e-06 -0.0162119 0.00135988 -7.85233e-05 0.0361535 -0.204246)
(-0.000260526 -9.48606e-05 -0.000102785 -4.99032e-05 -0.0161881 0.00135453 -0.000385142 0.0359563 -0.204135)
(-0.00203099 -0.000410954 -0.000955451 -0.000222298 -0.0159478 0.00130986 -0.002671 0.035079 -0.204496)
(-0.0183608 -0.00042464 0.00501384 -0.00079085 -0.0148822 0.00098935 -0.0229229 0.0317635 -0.20654)
(-0.0887417 0.00259831 0.115908 -0.00539305 -0.0139377 0.00255402 -0.220115 0.03051 -0.151266)
(-0.0903998 -0.00185955 -0.118767 0.00378942 -0.00882051 0.00124343 0.225569 0.0192338 -0.150983)
(-0.0188003 0.000268948 -0.00512045 0.000627581 -0.00929852 0.000148319 0.023686 0.0198345 -0.207535)
(-0.00209828 0.000299655 0.000982744 0.000176097 -0.0101 0.000350345 0.00286899 0.0222767 -0.20547)
(-0.000278723 7.45942e-05 0.000105934 4.20176e-05 -0.0103125 0.000378347 0.000441415 0.0229576 -0.205148)
(-3.6308e-05 9.48611e-06 -5.84854e-06 4.10825e-06 -0.01032 0.000378038 0.000107207 0.0231455 -0.205216)
(-4.51959e-06 -1.16014e-07 -2.81047e-06 -1.88265e-06 -0.0103372 0.000384907 4.40356e-05 0.0230536 -0.205249)
(-1.00971e-06 -3.77105e-06 1.43321e-06 -1.62366e-06 -0.0103011 0.000372198 4.73065e-05 0.0231447 -0.205235)
(-1.71341e-06 -1.86198e-06 1.45906e-07 -9.1321e-07 -0.0103185 0.000379027 4.8391e-05 0.023018 -0.205248)
(-9.59395e-07 -2.40892e-07 -2.72439e-07 -2.75713e-07 -0.0103281 0.000379412 1.19304e-05 0.0230343 -0.20525)
(-2.73741e-07 -4.01288e-07 8.1559e-07 -6.94245e-09 -0.0102966 0.000374183 2.419e-05 0.0230184 -0.205245)
(-1.35325e-06 -1.08889e-06 1.45196e-07 -2.45988e-06 -0.0103066 0.000373572 1.91303e-05 0.0231267 -0.205253)
(-7.82576e-07 -1.64973e-06 -5.23774e-07 -1.8641e-06 -0.0103018 0.00037176 -5.889e-06 0.0230162 -0.205236)
(5.98832e-07 2.45859e-06 1.61719e-07 3.30987e-06 -0.0103026 0.000380275 1.80414e-05 0.0229439 -0.205231)
(-5.20866e-07 -2.66597e-07 1.02929e-06 1.31694e-06 -0.0103253 0.000381765 2.04642e-05 0.0230313 -0.205244)
(-1.17689e-06 -1.36301e-06 -5.63481e-08 -4.41259e-07 -0.0103181 0.000376496 -1.33709e-05 0.0230132 -0.205243)
(1.81259e-07 1.65938e-06 -3.43252e-07 1.22679e-06 -0.0102996 0.000375951 -5.24735e-06 0.023015 -0.20524)
(-9.92155e-08 -3.65243e-07 3.28368e-07 -4.0965e-07 -0.0103252 0.000381842 1.06499e-05 0.0230284 -0.205245)
(-7.4291e-07 -2.54365e-06 -3.68672e-07 -2.86852e-06 -0.0103175 0.000377159 -1.9686e-05 0.0230141 -0.205244)
(-2.44919e-07 -1.78099e-06 3.07197e-09 -2.08868e-06 -0.0103035 0.000368065 -1.01115e-05 0.0230187 -0.205241)
(-1.03133e-06 -7.14626e-07 9.38639e-07 -1.0239e-06 -0.0103139 0.000377641 -4.00784e-07 0.0229264 -0.205234)
(-1.05684e-06 5.75004e-06 -1.24218e-06 3.87685e-06 -0.0103209 0.000373752 -2.58669e-05 0.0229415 -0.205217)
(-5.51931e-07 2.34075e-06 -6.23912e-07 3.65495e-06 -0.0103185 0.000379716 -2.9141e-05 0.0231485 -0.205258)
(-1.74976e-06 -1.38323e-06 -6.24379e-08 -1.25129e-06 -0.0103177 0.000377364 -4.72559e-05 0.0230203 -0.205249)
(-1.11509e-06 3.79564e-06 -2.15605e-06 2.57326e-07 -0.0103102 0.000373229 -6.04448e-05 0.0230427 -0.205242)
(-3.41028e-06 -2.45789e-06 2.62023e-06 -2.69966e-07 -0.0103056 0.000377006 -4.05664e-05 0.0230775 -0.205241)
(-3.67553e-05 -1.15234e-05 7.10687e-06 -6.08825e-06 -0.0103222 0.000379158 -9.85065e-05 0.0229418 -0.20521)
(-0.000279537 -6.9768e-05 -0.00010597 -3.85189e-05 -0.0103006 0.000369686 -0.000446566 0.0229488 -0.205114)
(-0.00209817 -0.000297649 -0.000982645 -0.000173881 -0.0101054 0.000357486 -0.002861 0.0222765 -0.205465)
(-0.0187982 -0.000267743 0.00511953 -0.00062786 -0.00929966 0.000151439 -0.0236907 0.0198272 -0.207529)
(-0.090395 0.001866 0.118753 -0.00379847 -0.0088274 0.00124162 -0.225544 0.0192592 -0.150987)
(-0.0914186 -0.00121562 -0.120639 0.00244178 -0.00556866 0.000652358 0.229139 0.0121463 -0.150959)
(-0.0190866 0.000170171 -0.00519162 0.000452333 -0.00576946 -5.17313e-05 0.0242827 0.0123487 -0.208326)
(-0.00214851 0.000211576 0.00100047 0.000133 -0.00637942 7.49723e-05 0.00302682 0.0141548 -0.206271)
(-0.000293538 5.30712e-05 0.00010766 3.04109e-05 -0.00653794 9.19931e-05 0.000463913 0.0145596 -0.205942)
(-3.97689e-05 7.22477e-06 -4.84115e-06 3.68684e-06 -0.00655948 9.04453e-05 0.000110774 0.0146368 -0.206008)
(-5.10536e-06 1.85811e-06 -2.75469e-06 2.842e-07 -0.00655815 9.90929e-05 5.61507e-05 0.014633 -0.206042)
(-1.19033e-06 -2.2614e-06 4.12465e-07 -1.6276e-06 -0.00655243 9.23833e-05 4.49746e-05 0.0147308 -0.206052)
(-1.39012e-06 -2.90024e-06 1.01103e-06 -1.29904e-06 -0.00654599 9.17524e-05 3.41606e-05 0.0146123 -0.206045)
(-8.2339e-07 1.95331e-06 -2.3123e-07 1.15145e-06 -0.00655166 9.65497e-05 2.62131e-05 0.0146205 -0.206046)
(-6.56095e-07 -1.10989e-07 -2.17848e-07 -4.3186e-07 -0.00653839 9.33087e-05 2.38914e-05 0.0147093 -0.206051)
(-1.36202e-06 -1.74147e-06 -8.96015e-08 -2.72536e-06 -0.0065497 9.21805e-05 1.65582e-05 0.0146194 -0.206044)
(-4.05598e-07 1.85267e-06 -2.95707e-07 9.39068e-07 -0.00653386 8.69399e-05 -5.6269e-06 0.0146357 -0.206041)
(6.4873e-07 4.63423e-07 5.16702e-07 1.87385e-06 -0.00652721 9.07651e-05 6.62662e-06 0.0147195 -0.206043)
(-5.45737e-07 -3.30908e-06 9.89625e-07 -1.44018e-06 -0.00654933 9.26397e-05 1.99038e-05 0.014621 -0.206041)
(-1.05952e-06 1.09082e-06 -2.378e-07 7.81061e-07 -0.00654675 8.92537e-05 4.27676e-07 0.0146084 -0.206042)
(-1.29828e-07 1.20154e-06 7.66585e-09 1.17346e-06 -0.00653968 9.16651e-05 -4.00813e-06 0.014708 -0.206048)
(-3.31011e-07 -2.28104e-06 2.51944e-07 -1.63114e-06 -0.00654915 9.23657e-05 -3.91041e-06 0.0146187 -0.206043)
(-7.88976e-07 -7.92882e-07 -8.02065e-07 -1.85076e-06 -0.00654531 9.0538e-05 -7.29965e-06 0.0146095 -0.206042)
(-4.87263e-07 -2.02994e-07 -5.08114e-07 -6.80043e-07 -0.00653898 8.91535e-05 -2.44413e-05 0.0146307 -0.206042)
(-3.82965e-07 -1.23704e-06 2.8914e-07 -1.2605e-06 -0.0065296 8.75033e-05 -2.9085e-05 0.0146084 -0.206035)
(-2.58661e-07 2.72128e-06 -5.562e-07 2.24363e-06 -0.00652608 8.29688e-05 -9.7153e-06 0.014544 -0.206032)
(-8.81068e-07 1.61999e-06 2.72566e-07 3.02052e-06 -0.00655675 9.54473e-05 -1.2717e-05 0.0146325 -0.206046)
(-2.08001e-06 1.18906e-06 2.41352e-08 6.15663e-07 -0.00654547 9.1727e-05 -3.3873e-05 0.0146144 -0.206046)
(-1.45799e-06 5.06577e-06 -1.97045e-06 2.34704e-06 -0.00654583 9.29695e-05 -5.9259e-05 0.0147257 -0.206052)
(-4.0881e-06 -2.61089e-06 2.04745e-06 -8.95835e-07 -0.00654162 9.65531e-05 -6.74511e-05 0.0147389 -0.206044)
(-3.95583e-05 -1.11342e-05 6.11356e-06 -7.37422e-06 -0.00653384 8.99419e-05 -9.08e-05 0.0146171 -0.206011)
(-0.000294084 -5.15003e-05 -0.000107119 -2.89852e-05 -0.00653266 8.31107e-05 -0.000451143 0.0145752 -0.205933)
(-0.00214886 -0.000210763 -0.000999101 -0.000131079 -0.00638368 7.7497e-05 -0.00303176 0.0141532 -0.206263)
(-0.0190857 -0.000169044 0.00519067 -0.000452343 -0.0057718 -5.23475e-05 -0.0242895 0.0123467 -0.208301)
(-0.0914153 0.00122156 0.12063 -0.00245058 -0.00557297 0.00065694 -0.229126 0.0121599 -0.150963)
(-0.092046 -0.000750479 -0.121798 0.00149046 -0.00351586 0.00038028 0.231352 0.00764998 -0.150983)
(-0.019262 0.000106797 -0.00523593 0.000302699 -0.00357483 -5.15748e-05 0.0246813 0.00768367 -0.208849)
(-0.00218266 0.000145959 0.00101149 9.83171e-05 -0.00402832 2.86755e-05 0.00314603 0.00885676 -0.206796)
(-0.000304586 3.85827e-05 0.000109029 2.29323e-05 -0.00413979 3.7099e-05 0.000491301 0.00921255 -0.206478)
(-4.23334e-05 5.44431e-06 -4.42858e-06 3.19654e-06 -0.00415747 3.6843e-05 0.000112028 0.00926966 -0.20656)
(-5.58248e-06 1.2938e-06 -2.42286e-06 5.66509e-07 -0.00415593 3.9516e-05 5.58639e-05 0.00926916 -0.20658)
(-1.32636e-06 -1.33843e-06 -3.48978e-08 -1.21973e-06 -0.00416112 4.20413e-05 4.35925e-05 0.00927544 -0.206586)
(-1.1576e-06 -1.7074e-06 9.79181e-07 -7.99611e-07 -0.00414843 3.67191e-05 3.38885e-05 0.00925608 -0.206584)
(-7.85958e-07 1.27884e-06 3.88299e-08 4.66236e-07 -0.0041514 3.86404e-05 2.6992e-05 0.00926092 -0.206583)
(-1.0491e-06 -1.02519e-08 -5.82509e-08 -4.58511e-07 -0.0041548 3.98599e-05 2.3467e-05 0.00926766 -0.20657)
(-1.07907e-06 -1.82933e-07 -1.12857e-06 -9.89851e-07 -0.0041507 4.03946e-05 1.52449e-06 0.00926036 -0.206581)
(1.37268e-07 2.84832e-06 -8.06867e-07 1.87716e-06 -0.00413914 3.54919e-05 8.75904e-06 0.00926887 -0.206578)
(1.22983e-07 -6.35115e-07 1.30168e-06 6.2505e-07 -0.00415136 3.83044e-05 2.10228e-05 0.0093593 -0.206586)
(-7.39424e-07 -4.17454e-06 7.27023e-07 -2.66356e-06 -0.00415011 3.68385e-05 5.29202e-06 0.00926241 -0.206581)
(-6.5416e-07 5.67183e-07 -2.51277e-07 1.13565e-07 -0.00415236 3.59311e-05 5.60772e-07 0.0092516 -0.206581)
(-3.01182e-07 1.1796e-06 2.79144e-07 1.25872e-06 -0.00415456 3.72572e-05 -2.99411e-06 0.00926804 -0.206571)
(-7.04059e-07 -1.49135e-06 1.02948e-07 -9.19169e-07 -0.0041496 3.65779e-05 -4.83216e-06 0.00926092 -0.206583)
(-5.52689e-07 -5.09367e-07 -1.01112e-06 -1.71832e-06 -0.00414856 3.4489e-05 -2.13213e-05 0.00925464 -0.206582)
(-1.26865e-07 1.36024e-06 -6.03873e-07 7.06083e-07 -0.00413632 3.45946e-05 -1.08617e-05 0.00919783 -0.206558)
(-4.46595e-07 1.86458e-06 -2.98298e-07 1.68507e-06 -0.00414655 3.54293e-05 -1.59539e-05 0.00933979 -0.206584)
(-2.00641e-07 3.20815e-07 3.46632e-07 7.98805e-07 -0.00412958 3.18111e-05 -2.17561e-05 0.00935118 -0.206584)
(-8.77524e-07 -1.53727e-06 1.12774e-06 9.87119e-08 -0.0041548 4.14313e-05 -1.16405e-05 0.00926869 -0.206583)
(-1.88446e-06 8.01241e-07 -5.57989e-07 4.21379e-07 -0.00414806 3.72253e-05 -3.35575e-05 0.00925837 -0.206585)
(-1.41739e-06 4.56718e-06 -1.19084e-06 2.88774e-06 -0.00415826 3.99005e-05 -4.42377e-05 0.00927465 -0.206585)
(-5.35453e-06 -6.15356e-08 2.0147e-06 5.24175e-07 -0.00416079 4.42038e-05 -5.40838e-05 0.00936836 -0.206583)
(-4.23732e-05 -9.73299e-06 4.41839e-06 -7.23178e-06 -0.00414598 3.62699e-05 -0.000123024 0.00934595 -0.20656)
(-0.000304278 -3.97357e-05 -0.000108459 -2.39165e-05 -0.00412923 3.12926e-05 -0.000491927 0.00914535 -0.206463)
(-0.00218284 -0.000145477 -0.00100974 -9.65359e-05 -0.00403111 2.80264e-05 -0.00313554 0.00885467 -0.206788)
(-0.0192621 -0.0001056 0.00523542 -0.000302063 -0.00357561 -5.59309e-05 -0.0246844 0.0076824 -0.208844)
(-0.0920449 0.000755409 0.121796 -0.00149726 -0.0035165 0.000384837 -0.231349 0.00765867 -0.150985)
(-0.0924316 -0.000447495 -0.122489 0.000881353 -0.0022265 0.000235622 0.23267 0.00480083 -0.151005)
(-0.019365 6.76798e-05 -0.00526194 0.000192857 -0.00222312 -2.49727e-05 0.0249385 0.00478125 -0.209169)
(-0.00220446 9.85824e-05 0.0010182 7.06467e-05 -0.00254178 2.55342e-05 0.00323276 0.00556224 -0.207125)
(-0.000312562 2.72424e-05 0.000109293 1.68072e-05 -0.00262681 2.84794e-05 0.000512351 0.00581628 -0.206814)
(-4.4242e-05 3.9971e-06 -4.35775e-06 2.52781e-06 -0.00264488 2.76016e-05 0.0001169 0.00586036 -0.206887)
(-5.98862e-06 1.12688e-06 -1.71501e-06 1.00438e-06 -0.00264017 2.86178e-05 5.57467e-05 0.00585867 -0.206919)
(-1.46355e-06 -7.60619e-07 -1.4691e-07 -7.89448e-07 -0.00264277 3.28932e-05 4.25123e-05 0.00586111 -0.206922)