/*--------------------------------*- C++ -*----------------------------------*\
| =========                 |                                                 |
| \\      /  F ield         | OpenFOAM: The Open Source CFD Toolbox           |
|  \\    /   O peration     | Version:  2106                                  |
|   \\  /    A nd           | Website:  www.openfoam.com                      |
|    \\/     M anipulation  |                                                 |
\*---------------------------------------------------------------------------*/
FoamFile
{
    version     2.0;
    format      ascii;
    arch        "LSB;label=32;scalar=64";
    class       volVectorField;
    location    "297";
    object      D;
}
// * * * * * * * * * * * * * * * * * * * * * * * * * * * * * * * * * * * * * //

dimensions      [0 1 0 0 0 0 0];

internalField   nonuniform List<vector> 
9000
(
(1.14088e-05 2.08628e-05 3.14164e-06)
(1.32672e-06 2.19666e-05 8.66888e-08)
(2.19638e-07 2.33194e-05 1.23495e-06)
(3.89942e-08 2.36229e-05 1.44925e-06)
(4.7512e-09 2.36323e-05 1.45264e-06)
(1.65539e-09 2.35986e-05 1.43163e-06)
(1.85086e-09 2.36183e-05 1.44381e-06)
(6.53305e-10 2.35982e-05 1.43172e-06)
(1.79892e-09 2.35978e-05 1.43139e-06)
(3.44914e-11 2.36244e-05 1.4483e-06)
(-2.20044e-09 2.36096e-05 1.43745e-06)
(1.67881e-09 2.35833e-05 1.42025e-06)
(2.66199e-09 2.3621e-05 1.44617e-06)
(-1.06086e-09 2.36215e-05 1.44624e-06)
(2.96899e-10 2.36137e-05 1.4398e-06)
(1.10752e-09 2.36268e-05 1.44983e-06)
(-1.6235e-09 2.36216e-05 1.44623e-06)
(-1.94425e-10 2.36136e-05 1.43958e-06)
(-1.41653e-09 2.36221e-05 1.44697e-06)
(-1.47362e-09 2.35839e-05 1.42096e-06)
(1.68834e-09 2.35949e-05 1.42936e-06)
(3.87623e-10 2.36229e-05 1.44724e-06)
(-1.98878e-09 2.3625e-05 1.44859e-06)
(-1.93036e-09 2.35998e-05 1.43257e-06)
(-1.98983e-09 2.362e-05 1.44556e-06)
(-7.25172e-09 2.36076e-05 1.43695e-06)
(-3.84797e-08 2.3605e-05 1.43659e-06)
(-2.17929e-07 2.33132e-05 1.2312e-06)
(-1.32655e-06 2.19663e-05 8.65131e-08)
(-1.1409e-05 2.08619e-05 3.14124e-06)
(1.10819e-05 1.25703e-05 -5.84344e-06)
(1.22439e-06 1.31936e-05 -9.2585e-06)
(1.43556e-07 1.40114e-05 -8.68647e-06)
(2.12355e-08 1.42166e-05 -8.60594e-06)
(5.11924e-09 1.42229e-05 -8.60669e-06)
(2.57149e-09 1.4206e-05 -8.60474e-06)
(1.90519e-09 1.42127e-05 -8.60809e-06)
(1.1394e-09 1.42066e-05 -8.60384e-06)
(8.81568e-10 1.42062e-05 -8.60404e-06)
(6.09179e-10 1.42164e-05 -8.60768e-06)
(2.98914e-10 1.42134e-05 -8.60537e-06)
(4.03637e-10 1.42034e-05 -8.60127e-06)
(2.34322e-10 1.42136e-05 -8.60797e-06)
(-1.10338e-10 1.42123e-05 -8.60706e-06)
(3.50468e-11 1.42162e-05 -8.60519e-06)
(-4.842e-12 1.4218e-05 -8.60737e-06)
(-2.39001e-10 1.42123e-05 -8.60705e-06)
(-6.7512e-11 1.4216e-05 -8.6053e-06)
(-2.2336e-10 1.42149e-05 -8.60774e-06)
(-4.34442e-10 1.42039e-05 -8.60155e-06)
(-6.77197e-10 1.42044e-05 -8.60365e-06)
(-9.05626e-10 1.42148e-05 -8.60843e-06)
(-1.24104e-09 1.4217e-05 -8.6077e-06)
(-1.65164e-09 1.42072e-05 -8.60408e-06)
(-2.34253e-09 1.42127e-05 -8.60856e-06)
(-5.27051e-09 1.4214e-05 -8.60272e-06)
(-2.12848e-08 1.42113e-05 -8.60369e-06)
(-1.43557e-07 1.40049e-05 -8.68644e-06)
(-1.22448e-06 1.31933e-05 -9.25847e-06)
(-1.1082e-05 1.25692e-05 -5.84365e-06)
(1.11524e-05 7.78161e-06 -7.40815e-06)
(1.22031e-06 8.20369e-06 -1.09329e-05)
(1.30413e-07 8.751e-06 -1.04554e-05)
(1.56397e-08 8.89835e-06 -1.0401e-05)
(5.2303e-09 8.90445e-06 -1.04028e-05)
(2.89145e-09 8.8994e-06 -1.03999e-05)
(1.90762e-09 8.89663e-06 -1.0403e-05)
(1.51643e-09 8.90195e-06 -1.03999e-05)
(3.65887e-10 8.90134e-06 -1.04001e-05)
(4.80321e-10 8.89968e-06 -1.04029e-05)
(1.27744e-09 8.89747e-06 -1.04021e-05)
(1.18253e-10 8.89968e-06 -1.03983e-05)
(-9.61406e-10 8.89634e-06 -1.04015e-05)
(2.75116e-11 8.89999e-06 -1.04012e-05)
(1.45865e-10 8.89955e-06 -1.04023e-05)
(-4.77296e-10 8.90085e-06 -1.0403e-05)
(1.31752e-10 8.90011e-06 -1.04012e-05)
(2.78618e-10 8.89938e-06 -1.04023e-05)
(4.18459e-10 8.89881e-06 -1.04026e-05)
(1.30781e-10 8.90013e-06 -1.03989e-05)
(-1.54003e-09 8.90079e-06 -1.03991e-05)
(-1.61498e-09 8.897e-06 -1.04025e-05)
(-7.9339e-10 8.90024e-06 -1.04031e-05)
(-1.54383e-09 8.90155e-06 -1.04005e-05)
(-2.44148e-09 8.89531e-06 -1.04026e-05)
(-4.44018e-09 8.90712e-06 -1.03995e-05)
(-1.6315e-08 8.89476e-06 -1.03997e-05)
(-1.30995e-07 8.74948e-06 -1.04536e-05)
(-1.22031e-06 8.20353e-06 -1.09328e-05)
(-1.11523e-05 7.78008e-06 -7.40856e-06)
(1.15377e-05 4.89337e-06 -7.09558e-06)
(1.26266e-06 5.16251e-06 -1.07433e-05)
(1.43153e-07 5.56014e-06 -1.02381e-05)
(1.67701e-08 5.66684e-06 -1.01798e-05)
(4.75572e-09 5.67267e-06 -1.0182e-05)
(2.86923e-09 5.66955e-06 -1.01816e-05)
(2.00736e-09 5.66601e-06 -1.01819e-05)
(1.37373e-09 5.67081e-06 -1.0183e-05)
(5.68338e-10 5.66923e-06 -1.01822e-05)
(6.43695e-10 5.66959e-06 -1.01818e-05)
(1.1202e-09 5.66785e-06 -1.01818e-05)
(-5.93446e-11 5.6691e-06 -1.01818e-05)
(-7.11308e-10 5.66933e-06 -1.01806e-05)
(2.00854e-10 5.67448e-06 -1.01816e-05)
(7.65193e-12 5.6698e-06 -1.01818e-05)
(-3.53138e-10 5.67049e-06 -1.01821e-05)
(1.62458e-10 5.67451e-06 -1.01817e-05)
(2.58384e-10 5.66966e-06 -1.01817e-05)
(2.36015e-10 5.669e-06 -1.01811e-05)
(-8.63249e-11 5.66964e-06 -1.01826e-05)
(-1.46483e-09 5.67008e-06 -1.01821e-05)
(-1.48047e-09 5.66926e-06 -1.0181e-05)
(-8.34807e-10 5.6702e-06 -1.0182e-05)
(-1.70758e-09 5.66916e-06 -1.01829e-05)
(-2.42937e-09 5.66682e-06 -1.01807e-05)
(-4.07382e-09 5.67421e-06 -1.01825e-05)
(-1.71127e-08 5.66447e-06 -1.01793e-05)
(-1.43748e-07 5.56332e-06 -1.02371e-05)
(-1.26287e-06 5.16248e-06 -1.07431e-05)
(-1.15372e-05 4.891e-06 -7.09531e-06)
(1.20122e-05 3.09065e-06 -6.68305e-06)
(1.32144e-06 3.23767e-06 -1.04723e-05)
(1.615e-07 3.53476e-06 -9.93137e-06)
(1.99665e-08 3.61218e-06 -9.86559e-06)
(4.57754e-09 3.61693e-06 -9.86737e-06)
(2.53654e-09 3.61954e-06 -9.86836e-06)
(2.02157e-09 3.61347e-06 -9.86781e-06)
(1.24374e-09 3.61649e-06 -9.86867e-06)
(7.53802e-10 3.61665e-06 -9.86818e-06)
(8.71401e-10 3.6154e-06 -9.86765e-06)
(8.13081e-10 3.61369e-06 -9.86756e-06)
(4.04947e-11 3.61515e-06 -9.86807e-06)
(-4.34665e-10 3.61801e-06 -9.8682e-06)
(1.5885e-10 3.61889e-06 -9.86903e-06)
(2.62853e-11 3.61601e-06 -9.86786e-06)
(-3.10541e-10 3.61608e-06 -9.8682e-06)
(1.17007e-10 3.61882e-06 -9.86913e-06)
(2.76969e-10 3.61593e-06 -9.86781e-06)
(1.19603e-11 3.61503e-06 -9.86702e-06)
(-3.06258e-10 3.61563e-06 -9.86849e-06)
(-1.12551e-09 3.61607e-06 -9.86807e-06)
(-1.22664e-09 3.61735e-06 -9.86767e-06)
(-1.14851e-09 3.61631e-06 -9.86801e-06)
(-1.86279e-09 3.61635e-06 -9.86857e-06)
(-2.2175e-09 3.61649e-06 -9.86773e-06)
(-4.05975e-09 3.61851e-06 -9.86802e-06)
(-2.02469e-08 3.61042e-06 -9.86531e-06)
(-1.61911e-07 3.53646e-06 -9.93218e-06)
(-1.32176e-06 3.2377e-06 -1.04721e-05)
(-1.20109e-05 3.09031e-06 -6.68271e-06)
(1.24266e-05 1.95085e-06 -6.45205e-06)
(1.37913e-06 2.01753e-06 -1.03629e-05)
(1.782e-07 2.23452e-06 -9.79636e-06)
(2.33986e-08 2.29376e-06 -9.72632e-06)
(4.7881e-09 2.29933e-06 -9.72813e-06)
(2.39578e-09 2.30195e-06 -9.73011e-06)
(1.88995e-09 2.29826e-06 -9.72893e-06)
(1.30549e-09 2.2981e-06 -9.72902e-06)
(7.64936e-10 2.30004e-06 -9.7293e-06)
(6.76021e-10 2.29656e-06 -9.72851e-06)
(6.34414e-10 2.29715e-06 -9.72864e-06)
(1.64053e-10 2.29635e-06 -9.7283e-06)
(-1.79661e-10 2.29793e-06 -9.72968e-06)
(2.22379e-10 2.29949e-06 -9.72926e-06)
(8.58445e-12 2.29776e-06 -9.72871e-06)
(-2.48297e-10 2.29697e-06 -9.72873e-06)
(8.32545e-11 2.29938e-06 -9.72932e-06)
(1.5033e-10 2.29773e-06 -9.7287e-06)
(-1.29762e-10 2.29613e-06 -9.72797e-06)
(-3.48085e-10 2.29716e-06 -9.72901e-06)
(-1.07514e-09 2.29754e-06 -9.72854e-06)
(-1.04839e-09 2.29952e-06 -9.72964e-06)
(-9.6677e-10 2.29803e-06 -9.72887e-06)
(-1.98417e-09 2.29902e-06 -9.72877e-06)
(-2.22951e-09 2.29977e-06 -9.73003e-06)
(-4.2186e-09 2.29894e-06 -9.7284e-06)
(-2.38171e-08 2.29168e-06 -9.72541e-06)
(-1.78435e-07 2.23547e-06 -9.7971e-06)
(-1.37927e-06 2.01758e-06 -1.03627e-05)
(-1.24249e-05 1.95267e-06 -6.45217e-06)
(1.27306e-05 1.2296e-06 -6.34197e-06)
(1.42695e-06 1.25245e-06 -1.03409e-05)
(1.91514e-07 1.40854e-06 -9.75794e-06)
(2.66891e-08 1.45214e-06 -9.68551e-06)
(5.06424e-09 1.45832e-06 -9.6872e-06)
(2.15013e-09 1.4585e-06 -9.68915e-06)
(1.7963e-09 1.45835e-06 -9.68881e-06)
(1.28953e-09 1.45611e-06 -9.68815e-06)
(6.32649e-10 1.45726e-06 -9.68881e-06)
(7.06483e-10 1.45599e-06 -9.68831e-06)
(4.85493e-10 1.45702e-06 -9.68823e-06)
(-3.84657e-11 1.45553e-06 -9.68823e-06)
(1.60162e-10 1.45597e-06 -9.68848e-06)
(3.89957e-10 1.45691e-06 -9.68812e-06)
(-1.22685e-10 1.45585e-06 -9.688e-06)
(-1.79785e-10 1.45612e-06 -9.68822e-06)
(1.49668e-10 1.4568e-06 -9.68817e-06)
(-1.48088e-10 1.45586e-06 -9.68801e-06)
(-2.31971e-10 1.45528e-06 -9.68832e-06)
(-2.47876e-10 1.4547e-06 -9.68788e-06)
(-8.43902e-10 1.45475e-06 -9.68769e-06)
(-8.67868e-10 1.45842e-06 -9.68873e-06)
(-1.17395e-09 1.45611e-06 -9.68817e-06)
(-2.02359e-09 1.45734e-06 -9.68876e-06)
(-2.0899e-09 1.45856e-06 -9.6895e-06)
(-4.6418e-09 1.45581e-06 -9.68722e-06)
(-2.69104e-08 1.45103e-06 -9.68515e-06)
(-1.91555e-07 1.40912e-06 -9.75803e-06)
(-1.4271e-06 1.25249e-06 -1.03406e-05)
(-1.27293e-05 1.23089e-06 -6.34265e-06)
(1.29314e-05 7.74069e-07 -6.28668e-06)
(1.4627e-06 7.77073e-07 -1.03435e-05)
(2.01647e-07 8.87176e-07 -9.75014e-06)
(2.90002e-08 9.1803e-07 -9.67635e-06)
(5.33069e-09 9.22612e-07 -9.67826e-06)
(2.1566e-09 9.22878e-07 -9.67935e-06)
(1.67743e-09 9.2389e-07 -9.67986e-06)
(1.17465e-09 9.21455e-07 -9.67902e-06)
(7.22885e-10 9.22091e-07 -9.67926e-06)
(6.85325e-10 9.2276e-07 -9.67918e-06)
(3.56117e-10 9.22047e-07 -9.67937e-06)
(-5.88712e-11 9.21833e-07 -9.67918e-06)
(2.3868e-10 9.23263e-07 -9.67945e-06)
(4.04401e-10 9.2195e-07 -9.67887e-06)
(-3.71995e-11 9.21199e-07 -9.67895e-06)
(-1.20772e-10 9.22743e-07 -9.67905e-06)
(6.84624e-12 9.21831e-07 -9.67893e-06)
(-2.20298e-10 9.21277e-07 -9.67891e-06)
(-3.92818e-10 9.21476e-07 -9.67937e-06)
(-4.80272e-10 9.21134e-07 -9.67911e-06)
(-5.89574e-10 9.20607e-07 -9.67915e-06)
(-5.84337e-10 9.22828e-07 -9.67954e-06)
(-1.12239e-09 9.21501e-07 -9.67906e-06)
(-1.95313e-09 9.23475e-07 -9.67952e-06)
(-2.26366e-09 9.24729e-07 -9.6803e-06)
(-4.99898e-09 9.21861e-07 -9.67834e-06)
(-2.8964e-08 9.17563e-07 -9.67652e-06)
(-2.01643e-07 8.87412e-07 -9.74992e-06)
(-1.4629e-06 7.76984e-07 -1.0343e-05)
(-1.29307e-05 7.74969e-07 -6.28712e-06)
(1.30557e-05 4.86606e-07 -6.25533e-06)
(1.48717e-06 4.82703e-07 -1.03481e-05)
(2.09225e-07 5.57484e-07 -9.74837e-06)
(3.07447e-08 5.79926e-07 -9.67365e-06)
(5.54985e-09 5.83298e-07 -9.67559e-06)
(2.18655e-09 5.83598e-07 -9.6764e-06)
(1.58069e-09 5.84148e-07 -9.67699e-06)
(1.12334e-09 5.82762e-07 -9.67637e-06)
(7.77418e-10 5.83116e-07 -9.67639e-06)
(6.59636e-10 5.83601e-07 -9.67637e-06)
(1.81055e-10 5.83141e-07 -9.67639e-06)
(9.79055e-11 5.83631e-07 -9.677e-06)
(3.83828e-10 5.84947e-07 -9.67683e-06)
(2.33966e-10 5.831e-07 -9.6762e-06)
(1.77171e-12 5.82364e-07 -9.67643e-06)
(-6.76454e-11 5.83497e-07 -9.67637e-06)
(-8.17088e-11 5.82981e-07 -9.67628e-06)
(-3.91297e-10 5.82587e-07 -9.6763e-06)
(-3.29019e-10 5.82778e-07 -9.67683e-06)
(-4.14086e-10 5.83467e-07 -9.6766e-06)
(-5.71764e-10 5.83984e-07 -9.67701e-06)
(-4.87284e-10 5.83575e-07 -9.67645e-06)
(-1.0928e-09 5.82822e-07 -9.67637e-06)
(-1.72834e-09 5.83983e-07 -9.67683e-06)
(-2.19577e-09 5.85697e-07 -9.67713e-06)
(-5.58552e-09 5.84044e-07 -9.67563e-06)
(-3.07852e-08 5.79473e-07 -9.67439e-06)
(-2.09059e-07 5.57514e-07 -9.74811e-06)
(-1.48736e-06 4.82497e-07 -1.0348e-05)
(-1.30555e-05 4.87342e-07 -6.25548e-06)
(1.31297e-05 3.04918e-07 -6.23624e-06)
(1.503e-06 3.00059e-07 -1.03507e-05)
(2.14742e-07 3.49745e-07 -9.74666e-06)
(3.20638e-08 3.6572e-07 -9.67172e-06)
(5.75519e-09 3.68037e-07 -9.67368e-06)
(2.22172e-09 3.68448e-07 -9.67443e-06)
(1.51449e-09 3.68741e-07 -9.67465e-06)
(1.08401e-09 3.67978e-07 -9.67447e-06)
(7.81536e-10 3.6818e-07 -9.67445e-06)
(6.36355e-10 3.68404e-07 -9.67424e-06)
(2.71367e-10 3.68235e-07 -9.67433e-06)
(1.83312e-10 3.69407e-07 -9.67475e-06)
(3.00654e-10 3.69248e-07 -9.67475e-06)
(9.96992e-11 3.68214e-07 -9.6743e-06)
(-6.52345e-12 3.67113e-07 -9.67441e-06)
(3.2995e-12 3.68341e-07 -9.67441e-06)
(-1.17514e-10 3.68128e-07 -9.6744e-06)
(-4.46135e-10 3.67688e-07 -9.67457e-06)
(-3.1903e-10 3.69433e-07 -9.67506e-06)
(-2.61701e-10 3.67793e-07 -9.67471e-06)
(-5.05333e-10 3.69501e-07 -9.67522e-06)
(-5.83584e-10 3.68438e-07 -9.67438e-06)
(-1.07201e-09 3.68042e-07 -9.67445e-06)
(-1.59341e-09 3.68663e-07 -9.67458e-06)
(-2.17793e-09 3.69566e-07 -9.67484e-06)
(-5.92174e-09 3.68623e-07 -9.67382e-06)
(-3.21547e-08 3.6656e-07 -9.67262e-06)
(-2.14528e-07 3.49628e-07 -9.7465e-06)
(-1.50314e-06 2.99963e-07 -1.03507e-05)
(-1.31299e-05 3.0574e-07 -6.23612e-06)
(1.31729e-05 1.89442e-07 -6.2241e-06)
(1.51287e-06 1.85992e-07 -1.03517e-05)
(2.18638e-07 2.18345e-07 -9.74523e-06)
(3.29975e-08 2.29427e-07 -9.67011e-06)
(5.89035e-09 2.30474e-07 -9.67213e-06)
(2.30371e-09 2.31365e-07 -9.67284e-06)
(1.47441e-09 2.31554e-07 -9.67289e-06)
(1.04979e-09 2.31146e-07 -9.67289e-06)
(7.57255e-10 2.31271e-07 -9.67287e-06)
(6.11602e-10 2.31409e-07 -9.6728e-06)
(3.31908e-10 2.3128e-07 -9.67272e-06)
(2.37868e-10 2.31704e-07 -9.67323e-06)
(2.66841e-10 2.31867e-07 -9.67281e-06)
(-7.60605e-11 2.31333e-07 -9.67271e-06)
(-8.27772e-12 2.31059e-07 -9.6732e-06)
(1.43513e-10 2.31445e-07 -9.67278e-06)
(-1.71706e-10 2.31287e-07 -9.67279e-06)
(-3.17516e-10 2.30432e-07 -9.67289e-06)
(-3.73932e-10 2.3294e-07 -9.67332e-06)
(-3.69534e-10 2.31447e-07 -9.67327e-06)
(-3.74326e-10 2.31422e-07 -9.67329e-06)
(-6.01253e-10 2.31308e-07 -9.67281e-06)
(-1.05003e-09 2.31211e-07 -9.67284e-06)
(-1.51343e-09 2.3151e-07 -9.67284e-06)
(-2.18547e-09 2.31955e-07 -9.67284e-06)
(-6.04469e-09 2.31313e-07 -9.67202e-06)
(-3.31727e-08 2.29847e-07 -9.6708e-06)
(-2.18511e-07 2.17995e-07 -9.74526e-06)
(-1.51291e-06 1.85963e-07 -1.03518e-05)
(-1.31733e-05 1.90696e-07 -6.22413e-06)
(1.31979e-05 1.16929e-07 -6.21711e-06)
(1.51894e-06 1.13876e-07 -1.03521e-05)
(2.21296e-07 1.34395e-07 -9.74425e-06)
(3.36086e-08 1.41851e-07 -9.66893e-06)
(6.00596e-09 1.43072e-07 -9.67135e-06)
(2.43834e-09 1.43082e-07 -9.67177e-06)
(1.4559e-09 1.43269e-07 -9.67174e-06)
(1.02404e-09 1.43062e-07 -9.67175e-06)
(7.48432e-10 1.43149e-07 -9.67175e-06)
(5.92012e-10 1.43334e-07 -9.67167e-06)
(3.24482e-10 1.43045e-07 -9.67165e-06)
(2.80687e-10 1.42757e-07 -9.67175e-06)
(2.84321e-10 1.43478e-07 -9.67154e-06)
(-2.89821e-11 1.43216e-07 -9.67158e-06)
(-6.9362e-13 1.43635e-07 -9.67201e-06)
(7.90977e-11 1.43328e-07 -9.67154e-06)
(-2.97258e-10 1.43249e-07 -9.67157e-06)
(-2.50596e-10 1.43165e-07 -9.67206e-06)
(-1.66144e-10 1.44089e-07 -9.67197e-06)
(-5.05932e-10 1.43864e-07 -9.67199e-06)
(-4.68217e-10 1.4371e-07 -9.67209e-06)
(-5.28399e-10 1.42898e-07 -9.67182e-06)
(-1.02381e-09 1.43137e-07 -9.67169e-06)
(-1.47081e-09 1.43227e-07 -9.67167e-06)
(-2.21214e-09 1.43446e-07 -9.6716e-06)
(-6.27989e-09 1.42806e-07 -9.67094e-06)
(-3.39591e-08 1.41755e-07 -9.66967e-06)
(-2.21102e-07 1.33565e-07 -9.74419e-06)
(-1.51874e-06 1.13828e-07 -1.03522e-05)
(-1.31984e-05 1.17186e-07 -6.21681e-06)
(1.32125e-05 6.97474e-08 -6.21287e-06)
(1.52223e-06 6.71174e-08 -1.03523e-05)
(2.23019e-07 7.95162e-08 -9.74363e-06)
(3.42215e-08 8.42726e-08 -9.66813e-06)
(6.07115e-09 8.54519e-08 -9.67048e-06)
(2.35856e-09 8.4781e-08 -9.67123e-06)
(1.45696e-09 8.51217e-08 -9.67104e-06)
(1.00708e-09 8.50283e-08 -9.67105e-06)
(7.4944e-10 8.50875e-08 -9.67104e-06)
(5.67364e-10 8.5186e-08 -9.67086e-06)
(2.2739e-10 8.47793e-08 -9.67113e-06)
(3.25734e-10 8.52908e-08 -9.67127e-06)
(3.79765e-10 8.52986e-08 -9.67081e-06)
(-5.22017e-11 8.51381e-08 -9.67088e-06)
(7.06768e-12 8.4667e-08 -9.67128e-06)
(9.86723e-11 8.51255e-08 -9.67071e-06)
(-2.0247e-10 8.51831e-08 -9.67073e-06)
(-2.13881e-10 8.59413e-08 -9.6711e-06)
(-2.55072e-10 8.5625e-08 -9.67088e-06)
(-4.14799e-10 8.48374e-08 -9.67124e-06)
(-5.14411e-10 8.62695e-08 -9.67096e-06)
(-6.57168e-10 8.43116e-08 -9.67104e-06)
(-9.84025e-10 8.51271e-08 -9.6709e-06)
(-1.45479e-09 8.50513e-08 -9.67098e-06)
(-2.26344e-09 8.51838e-08 -9.67091e-06)
(-6.3595e-09 8.42076e-08 -9.67016e-06)
(-3.45332e-08 8.53231e-08 -9.66872e-06)
(-2.22897e-07 7.94951e-08 -9.7439e-06)
(-1.52206e-06 6.69846e-08 -1.03523e-05)
(-1.32126e-05 6.9265e-08 -6.21253e-06)
(1.32204e-05 3.58001e-08 -6.21046e-06)
(1.52412e-06 3.51357e-08 -1.03524e-05)
(2.24047e-07 4.17587e-08 -9.74329e-06)
(3.45393e-08 4.43208e-08 -9.66761e-06)
(6.04507e-09 4.40057e-08 -9.67037e-06)
(2.3961e-09 4.40429e-08 -9.67078e-06)
(1.49398e-09 4.48269e-08 -9.67066e-06)
(9.97473e-10 4.47975e-08 -9.67066e-06)
(7.29523e-10 4.48336e-08 -9.67066e-06)
(5.09668e-10 4.48075e-08 -9.6706e-06)
(3.55865e-10 4.40777e-08 -9.67068e-06)
(3.91192e-10 4.57056e-08 -9.67061e-06)
(2.69708e-10 4.49997e-08 -9.67038e-06)
(-1.67387e-10 4.48821e-08 -9.67049e-06)
(-1.68524e-11 4.49031e-08 -9.67107e-06)
(1.95489e-10 4.46783e-08 -9.67053e-06)
(-1.3185e-10 4.48958e-08 -9.67043e-06)
(-1.72212e-10 4.52262e-08 -9.67075e-06)
(-3.80419e-10 4.50661e-08 -9.67029e-06)
(-3.73226e-10 4.50985e-08 -9.67098e-06)
(-5.4471e-10 4.5393e-08 -9.67049e-06)
(-7.22317e-10 4.47393e-08 -9.67104e-06)
(-8.87238e-10 4.48411e-08 -9.6704e-06)
(-1.45397e-09 4.46731e-08 -9.67068e-06)
(-2.37186e-09 4.48527e-08 -9.67054e-06)
(-6.26456e-09 4.46698e-08 -9.67013e-06)
(-3.45838e-08 4.5577e-08 -9.66802e-06)
(-2.24082e-07 4.25598e-08 -9.74336e-06)
(-1.52406e-06 3.4888e-08 -1.03525e-05)
(-1.32207e-05 3.63747e-08 -6.21017e-06)
(1.32238e-05 1.14303e-08 -6.2094e-06)
(1.52509e-06 1.08918e-08 -1.03525e-05)
(2.24507e-07 1.29685e-08 -9.74316e-06)
(3.45217e-08 1.36975e-08 -9.66756e-06)
(5.98093e-09 1.33113e-08 -9.67031e-06)
(2.54246e-09 1.39533e-08 -9.67092e-06)
(1.59907e-09 1.39389e-08 -9.67051e-06)
(9.94203e-10 1.39285e-08 -9.6705e-06)
(7.16993e-10 1.39461e-08 -9.6705e-06)
(3.93378e-10 1.392e-08 -9.6705e-06)
(4.08943e-10 1.39693e-08 -9.67083e-06)
(5.1233e-10 1.42342e-08 -9.67058e-06)
(2.31006e-10 1.39515e-08 -9.67012e-06)
(-8.34058e-11 1.3992e-08 -9.67033e-06)
(-4.74471e-11 1.45082e-08 -9.67073e-06)
(1.04179e-10 1.36102e-08 -9.67063e-06)
(-8.74152e-11 1.39754e-08 -9.6702e-06)
(-1.6884e-10 1.40599e-08 -9.6704e-06)
(-2.81255e-10 1.39887e-08 -9.67026e-06)
(-3.5396e-10 1.48685e-08 -9.67047e-06)
(-5.67551e-10 1.4147e-08 -9.67027e-06)
(-7.47922e-10 1.44328e-08 -9.67077e-06)
(-9.7963e-10 1.39034e-08 -9.67035e-06)
(-1.43758e-09 1.35727e-08 -9.67068e-06)
(-2.25979e-09 1.39369e-08 -9.67038e-06)
(-6.23263e-09 1.44104e-08 -9.6698e-06)
(-3.47601e-08 1.41218e-08 -9.66779e-06)
(-2.24687e-07 1.33293e-08 -9.74329e-06)
(-1.52495e-06 1.03973e-08 -1.03528e-05)
(-1.32243e-05 1.12917e-08 -6.20918e-06)
(1.32241e-05 -1.04248e-08 -6.20922e-06)
(1.52492e-06 -1.09608e-08 -1.03525e-05)
(2.24496e-07 -1.30469e-08 -9.74315e-06)
(3.45442e-08 -1.3926e-08 -9.66762e-06)
(6.11759e-09 -1.31252e-08 -9.67024e-06)
(2.51826e-09 -1.31914e-08 -9.67062e-06)
(1.48793e-09 -1.40251e-08 -9.67051e-06)
(9.93302e-10 -1.40257e-08 -9.6705e-06)
(7.17293e-10 -1.40224e-08 -9.6705e-06)
(4.97488e-10 -1.40524e-08 -9.67053e-06)
(4.05522e-10 -1.32264e-08 -9.67055e-06)
(3.8275e-10 -1.41945e-08 -9.6706e-06)
(2.33147e-10 -1.42268e-08 -9.67032e-06)
(-5.51567e-11 -1.39823e-08 -9.67033e-06)
(-9.68957e-11 -1.43914e-08 -9.67073e-06)
(8.18474e-11 -1.47811e-08 -9.6706e-06)
(-4.08779e-11 -1.40646e-08 -9.67033e-06)
(-1.43083e-10 -1.41303e-08 -9.67041e-06)
(-2.30575e-10 -1.39807e-08 -9.67029e-06)
(-3.56112e-10 -1.36228e-08 -9.67053e-06)
(-6.13754e-10 -1.3977e-08 -9.67027e-06)
(-7.56484e-10 -1.44372e-08 -9.67077e-06)
(-1.01721e-09 -1.40281e-08 -9.67041e-06)
(-1.43364e-09 -1.48238e-08 -9.67064e-06)
(-2.20583e-09 -1.40538e-08 -9.67039e-06)
(-6.25345e-09 -1.45239e-08 -9.66968e-06)
(-3.47626e-08 -1.42147e-08 -9.6678e-06)
(-2.2487e-07 -1.28594e-08 -9.7431e-06)
(-1.52501e-06 -1.198e-08 -1.03526e-05)
(-1.32239e-05 -1.13484e-08 -6.20922e-06)
(1.32206e-05 -3.63294e-08 -6.21063e-06)
(1.52402e-06 -3.52225e-08 -1.03525e-05)
(2.24019e-07 -4.18878e-08 -9.74329e-06)
(3.46101e-08 -4.47338e-08 -9.66784e-06)
(6.17974e-09 -4.39322e-08 -9.67011e-06)
(2.34002e-09 -4.4523e-08 -9.67085e-06)
(1.43879e-09 -4.49228e-08 -9.67068e-06)
(9.98317e-10 -4.48914e-08 -9.67067e-06)
(7.31176e-10 -4.48959e-08 -9.67067e-06)
(5.45498e-10 -4.49159e-08 -9.67067e-06)
(3.45906e-10 -4.45787e-08 -9.67078e-06)
(3.01873e-10 -4.56636e-08 -9.67067e-06)
(2.82913e-10 -4.53148e-08 -9.67075e-06)
(-1.01018e-10 -4.48235e-08 -9.67046e-06)
(-1.94314e-10 -4.46687e-08 -9.67102e-06)
(1.49093e-10 -4.47754e-08 -9.67098e-06)
(3.07416e-11 -4.49247e-08 -9.67055e-06)
(-1.1415e-10 -4.52926e-08 -9.67078e-06)
(-1.93138e-10 -4.49346e-08 -9.6703e-06)
(-3.78003e-10 -4.47616e-08 -9.67055e-06)
(-7.18526e-10 -4.49817e-08 -9.67044e-06)
(-7.53981e-10 -4.47462e-08 -9.67104e-06)
(-1.03257e-09 -4.48537e-08 -9.6706e-06)
(-1.44153e-09 -4.48664e-08 -9.67111e-06)
(-2.20869e-09 -4.49078e-08 -9.67057e-06)
(-6.27325e-09 -4.48922e-08 -9.67012e-06)
(-3.45429e-08 -4.55716e-08 -9.66801e-06)
(-2.2464e-07 -4.16283e-08 -9.74311e-06)
(-1.52425e-06 -3.50984e-08 -1.03526e-05)
(-1.32198e-05 -3.63954e-08 -6.21028e-06)
(1.32126e-05 -7.00548e-08 -6.21269e-06)
(1.52217e-06 -6.7181e-08 -1.03524e-05)
(2.22955e-07 -7.9748e-08 -9.74372e-06)
(3.4322e-08 -8.51293e-08 -9.66832e-06)
(6.20765e-09 -8.54161e-08 -9.67031e-06)
(2.30414e-09 -8.5009e-08 -9.67107e-06)
(1.4259e-09 -8.51847e-08 -9.67109e-06)
(1.00949e-09 -8.51129e-08 -9.67107e-06)
(7.63575e-10 -8.51197e-08 -9.67106e-06)
(5.69646e-10 -8.51865e-08 -9.67088e-06)
(2.00952e-10 -8.50352e-08 -9.671e-06)
(2.24525e-10 -8.51935e-08 -9.67132e-06)
(4.07113e-10 -8.59796e-08 -9.67111e-06)
(8.52708e-11 -8.513e-08 -9.67072e-06)
(-6.12829e-11 -8.41847e-08 -9.67104e-06)
(1.37685e-11 -8.42359e-08 -9.67082e-06)
(-1.65661e-10 -8.5192e-08 -9.67093e-06)
(-1.1171e-10 -8.60067e-08 -9.67114e-06)
(-1.35874e-10 -8.53439e-08 -9.67068e-06)
(-3.87147e-10 -8.51348e-08 -9.67089e-06)
(-6.07836e-10 -8.53909e-08 -9.67084e-06)
(-7.30624e-10 -8.43323e-08 -9.67104e-06)
(-1.03504e-09 -8.50494e-08 -9.67098e-06)
(-1.4449e-09 -8.42668e-08 -9.67118e-06)
(-2.22358e-09 -8.51237e-08 -9.67097e-06)
(-6.34817e-09 -8.43806e-08 -9.67021e-06)
(-3.43754e-08 -8.53072e-08 -9.66856e-06)
(-2.23253e-07 -7.9426e-08 -9.74324e-06)
(-1.52233e-06 -6.5975e-08 -1.03523e-05)
(-1.32119e-05 -6.92511e-08 -6.21259e-06)
(1.31978e-05 -1.17092e-07 -6.21705e-06)
(1.51888e-06 -1.13885e-07 -1.03522e-05)
(2.21152e-07 -1.34807e-07 -9.74456e-06)
(3.37508e-08 -1.41893e-07 -9.66936e-06)
(6.21519e-09 -1.42936e-07 -9.67126e-06)
(2.39504e-09 -1.43187e-07 -9.67173e-06)
(1.43696e-09 -1.43244e-07 -9.67183e-06)
(1.02478e-09 -1.43129e-07 -9.67178e-06)
(7.91356e-10 -1.43134e-07 -9.67177e-06)
(5.75541e-10 -1.43279e-07 -9.67148e-06)
(2.67388e-10 -1.4319e-07 -9.67165e-06)
(1.0433e-10 -1.42522e-07 -9.67173e-06)
(2.96165e-10 -1.43198e-07 -9.67206e-06)
(2.51012e-10 -1.43226e-07 -9.67155e-06)
(1.699e-11 -1.42718e-07 -9.67184e-06)
(-4.98362e-11 -1.42865e-07 -9.67155e-06)
(-3.36334e-10 -1.43323e-07 -9.67164e-06)
(-1.31103e-10 -1.43238e-07 -9.6721e-06)
(-2.26748e-11 -1.43423e-07 -9.67159e-06)
(-3.86478e-10 -1.43251e-07 -9.67162e-06)
(-5.64595e-10 -1.43735e-07 -9.67167e-06)
(-6.92658e-10 -1.42968e-07 -9.67181e-06)
(-1.02703e-09 -1.43085e-07 -9.67169e-06)
(-1.4567e-09 -1.42722e-07 -9.67196e-06)
(-2.24327e-09 -1.43201e-07 -9.67168e-06)
(-6.28242e-09 -1.42929e-07 -9.67103e-06)
(-3.3876e-08 -1.41625e-07 -9.66958e-06)
(-2.21274e-07 -1.34305e-07 -9.74401e-06)
(-1.51885e-06 -1.13316e-07 -1.03524e-05)
(-1.31981e-05 -1.17167e-07 -6.21682e-06)
(1.31728e-05 -1.89523e-07 -6.22413e-06)
(1.5128e-06 -1.85897e-07 -1.03516e-05)
(2.18643e-07 -2.19079e-07 -9.74546e-06)
(3.31593e-08 -2.28691e-07 -9.67022e-06)
(5.95697e-09 -2.30275e-07 -9.67212e-06)
(2.28559e-09 -2.31409e-07 -9.67286e-06)
(1.46513e-09 -2.31338e-07 -9.673e-06)
(1.04034e-09 -2.31182e-07 -9.67293e-06)
(8.12989e-10 -2.31191e-07 -9.67289e-06)
(5.66204e-10 -2.3135e-07 -9.67254e-06)
(2.66384e-10 -2.31386e-07 -9.67279e-06)
(2.06897e-10 -2.31215e-07 -9.67296e-06)
(2.53878e-10 -2.30531e-07 -9.67287e-06)
(1.70179e-10 -2.31292e-07 -9.67277e-06)
(3.7548e-11 -2.31022e-07 -9.67283e-06)
(-8.63327e-11 -2.31174e-07 -9.67272e-06)
(-2.31936e-10 -2.31593e-07 -9.67289e-06)
(-1.35238e-10 -2.3053e-07 -9.67294e-06)
(-1.29925e-10 -2.31473e-07 -9.67285e-06)
(-4.16571e-10 -2.31384e-07 -9.67278e-06)
(-5.58234e-10 -2.32361e-07 -9.67314e-06)
(-6.32719e-10 -2.3145e-07 -9.67279e-06)
(-1.00822e-09 -2.31166e-07 -9.67282e-06)
(-1.479e-09 -2.30969e-07 -9.67293e-06)
(-2.2706e-09 -2.31374e-07 -9.67281e-06)
(-6.05193e-09 -2.31392e-07 -9.67212e-06)
(-3.31081e-08 -2.29261e-07 -9.67046e-06)
(-2.18595e-07 -2.18065e-07 -9.74506e-06)
(-1.51296e-06 -1.85651e-07 -1.03518e-05)
(-1.31733e-05 -1.90701e-07 -6.2241e-06)
(1.31296e-05 -3.04953e-07 -6.2363e-06)
(1.50289e-06 -3.00044e-07 -1.03502e-05)
(2.14827e-07 -3.49343e-07 -9.74687e-06)
(3.22753e-08 -3.65489e-07 -9.67194e-06)
(5.74215e-09 -3.67668e-07 -9.67387e-06)
(2.25965e-09 -3.68466e-07 -9.67449e-06)
(1.51706e-09 -3.68137e-07 -9.6746e-06)
(1.04998e-09 -3.67967e-07 -9.67452e-06)
(8.25362e-10 -3.67999e-07 -9.67447e-06)
(5.4461e-10 -3.68136e-07 -9.67407e-06)
(2.33414e-10 -3.68358e-07 -9.67443e-06)
(2.45611e-10 -3.68517e-07 -9.67447e-06)
(2.46185e-10 -3.67948e-07 -9.67457e-06)
(1.46053e-10 -3.6816e-07 -9.67439e-06)
(4.81257e-11 -3.67946e-07 -9.67438e-06)
(-1.23933e-10 -3.68034e-07 -9.67437e-06)
(-1.79504e-10 -3.6879e-07 -9.67473e-06)
(-1.13146e-10 -3.67851e-07 -9.67465e-06)
(-1.72739e-10 -3.68308e-07 -9.67452e-06)
(-4.96824e-10 -3.68241e-07 -9.67438e-06)
(-5.78896e-10 -3.70129e-07 -9.67493e-06)
(-5.33248e-10 -3.68671e-07 -9.67436e-06)
(-9.77335e-10 -3.67976e-07 -9.67442e-06)
(-1.51409e-09 -3.67842e-07 -9.67445e-06)
(-2.3149e-09 -3.6837e-07 -9.67444e-06)
(-5.92175e-09 -3.68671e-07 -9.67394e-06)
(-3.20805e-08 -3.65537e-07 -9.67208e-06)
(-2.14606e-07 -3.49198e-07 -9.74637e-06)
(-1.5032e-06 -2.99747e-07 -1.03507e-05)
(-1.31299e-05 -3.05794e-07 -6.23611e-06)
(1.30555e-05 -4.86613e-07 -6.25539e-06)
(1.48721e-06 -4.82746e-07 -1.03479e-05)
(2.09305e-07 -5.55789e-07 -9.74785e-06)
(3.07704e-08 -5.79998e-07 -9.67371e-06)
(5.51613e-09 -5.82797e-07 -9.67564e-06)
(2.28515e-09 -5.83631e-07 -9.67655e-06)
(1.59928e-09 -5.82824e-07 -9.67641e-06)
(1.04613e-09 -5.82691e-07 -9.6764e-06)
(8.20053e-10 -5.82789e-07 -9.67635e-06)
(5.10268e-10 -5.82889e-07 -9.67602e-06)
(1.9225e-10 -5.83363e-07 -9.6765e-06)
(2.58617e-10 -5.8382e-07 -9.67656e-06)
(2.52227e-10 -5.83128e-07 -9.67637e-06)
(1.46516e-10 -5.83041e-07 -9.67629e-06)
(6.54687e-11 -5.82765e-07 -9.6763e-06)
(-1.82499e-10 -5.82807e-07 -9.6763e-06)
(-1.48563e-10 -5.84183e-07 -9.67653e-06)
(-4.55005e-11 -5.82839e-07 -9.67641e-06)
(-1.89311e-10 -5.83077e-07 -9.67651e-06)
(-6.65927e-10 -5.83007e-07 -9.67628e-06)
(-6.22495e-10 -5.84713e-07 -9.67692e-06)
(-3.60158e-10 -5.83957e-07 -9.67647e-06)
(-9.34865e-10 -5.82716e-07 -9.67634e-06)
(-1.56508e-09 -5.82605e-07 -9.67635e-06)
(-2.386e-09 -5.83451e-07 -9.67649e-06)
(-5.61514e-09 -5.84097e-07 -9.67578e-06)
(-3.05966e-08 -5.79506e-07 -9.67389e-06)
(-2.09156e-07 -5.56534e-07 -9.74778e-06)
(-1.48743e-06 -4.82355e-07 -1.03481e-05)
(-1.30556e-05 -4.87474e-07 -6.25557e-06)
(1.29312e-05 -7.74057e-07 -6.28672e-06)
(1.46283e-06 -7.77047e-07 -1.03435e-05)
(2.01693e-07 -8.85582e-07 -9.74969e-06)
(2.88815e-08 -9.18428e-07 -9.67644e-06)
(5.26016e-09 -9.21814e-07 -9.67828e-06)
(2.35377e-09 -9.23017e-07 -9.67961e-06)
(1.71382e-09 -9.21515e-07 -9.67888e-06)
(1.03104e-09 -9.21324e-07 -9.67904e-06)
(7.91815e-10 -9.21562e-07 -9.67906e-06)
(4.58046e-10 -9.21429e-07 -9.67899e-06)
(1.59554e-10 -9.22446e-07 -9.67951e-06)
(2.60669e-10 -9.23235e-07 -9.67975e-06)
(2.52857e-10 -9.22237e-07 -9.67919e-06)
(1.58081e-10 -9.21933e-07 -9.67898e-06)
(9.76608e-11 -9.21481e-07 -9.679e-06)
(-2.87981e-10 -9.21463e-07 -9.67898e-06)
(-1.22154e-10 -9.22027e-07 -9.67925e-06)
(1.04504e-10 -9.21583e-07 -9.67904e-06)
(-1.91366e-10 -9.21671e-07 -9.6792e-06)
(-6.86004e-10 -9.21658e-07 -9.67893e-06)
(-6.78515e-10 -9.21845e-07 -9.67949e-06)
(-3.63204e-10 -9.23443e-07 -9.67969e-06)
(-8.87093e-10 -9.21344e-07 -9.67901e-06)
(-1.63334e-09 -9.21248e-07 -9.67902e-06)
(-2.51614e-09 -9.22677e-07 -9.67955e-06)
(-5.38508e-09 -9.21927e-07 -9.67847e-06)
(-2.86617e-08 -9.18658e-07 -9.67663e-06)
(-2.01519e-07 -8.85665e-07 -9.74967e-06)
(-1.463e-06 -7.76667e-07 -1.03434e-05)
(-1.29308e-05 -7.75226e-07 -6.2873e-06)
(1.27305e-05 -1.22957e-06 -6.34198e-06)
(1.42717e-06 -1.25241e-06 -1.0341e-05)
(1.91407e-07 -1.40856e-06 -9.75785e-06)
(2.65116e-08 -1.45299e-06 -9.68584e-06)
(4.96472e-09 -1.45688e-06 -9.68743e-06)
(2.4333e-09 -1.45882e-06 -9.68884e-06)
(1.84487e-09 -1.45608e-06 -9.68821e-06)
(1.05497e-09 -1.45595e-06 -9.68819e-06)
(7.80028e-10 -1.45645e-06 -9.68846e-06)
(3.71236e-10 -1.45581e-06 -9.6882e-06)
(9.36143e-11 -1.4577e-06 -9.6884e-06)
(2.70135e-10 -1.45894e-06 -9.68886e-06)
(2.41578e-10 -1.45749e-06 -9.6887e-06)
(1.71864e-10 -1.45697e-06 -9.68824e-06)
(1.49886e-10 -1.45619e-06 -9.68813e-06)
(-1.66853e-10 -1.45611e-06 -9.68811e-06)
(-8.73077e-11 -1.45608e-06 -9.68825e-06)
(7.89287e-11 -1.45622e-06 -9.68816e-06)
(-1.87308e-10 -1.45609e-06 -9.68808e-06)
(-5.8053e-10 -1.45633e-06 -9.68807e-06)
(-7.5021e-10 -1.45675e-06 -9.68883e-06)
(-5.36523e-10 -1.45943e-06 -9.68904e-06)
(-8.27736e-10 -1.45592e-06 -9.68811e-06)
(-1.71838e-09 -1.45586e-06 -9.68816e-06)
(-2.44853e-09 -1.45824e-06 -9.68872e-06)
(-5.18098e-09 -1.45585e-06 -9.68716e-06)
(-2.64462e-08 -1.45176e-06 -9.6856e-06)
(-1.91206e-07 -1.40826e-06 -9.7576e-06)
(-1.42736e-06 -1.25197e-06 -1.03408e-05)
(-1.27295e-05 -1.23121e-06 -6.34212e-06)
(1.24266e-05 -1.95082e-06 -6.45206e-06)
(1.37918e-06 -2.0175e-06 -1.0363e-05)
(1.78032e-07 -2.23569e-06 -9.79689e-06)
(2.35343e-08 -2.29531e-06 -9.72691e-06)
(4.63293e-09 -2.29941e-06 -9.72822e-06)
(2.5779e-09 -2.30025e-06 -9.73003e-06)
(2.04591e-09 -2.29772e-06 -9.729e-06)
(1.10343e-09 -2.29795e-06 -9.7291e-06)
(7.79544e-10 -2.29891e-06 -9.72983e-06)
(1.72786e-10 -2.29745e-06 -9.72867e-06)
(-6.60006e-11 -2.29819e-06 -9.72884e-06)
(3.21831e-10 -2.30014e-06 -9.72864e-06)
(2.74093e-10 -2.30027e-06 -9.72907e-06)
(1.9249e-10 -2.29962e-06 -9.72941e-06)
(2.12386e-10 -2.2983e-06 -9.72888e-06)
(-8.72079e-11 -2.29814e-06 -9.72885e-06)