/*--------------------------------*- C++ -*----------------------------------*\
| =========                 |                                                 |
| \\      /  F ield         | OpenFOAM: The Open Source CFD Toolbox           |
|  \\    /   O peration     | Version:  2106                                  |
|   \\  /    A nd           | Website:  www.openfoam.com                      |
|    \\/     M anipulation  |                                                 |
\*---------------------------------------------------------------------------*/
FoamFile
{
    version     2.0;
    format      ascii;
    arch        "LSB;label=32;scalar=64";
    class       volSymmTensorField;
    location    "297";
    object      epsilon;
}
// * * * * * * * * * * * * * * * * * * * * * * * * * * * * * * * * * * * * * //

dimensions      [0 0 0 0 0 0 0];

internalField   nonuniform List<symmTensor> 
9000
(
(-0.0856125 -0.000265482 0.0482025 -0.147167 0.0614423 -0.0252256)
(-0.0167837 0.000537352 0.00940302 -0.156509 0.0651564 -0.0696668)
(-0.00193159 0.000335943 0.00257706 -0.166425 0.0691861 -0.0594235)
(-0.00032233 5.0802e-05 0.00045533 -0.168045 0.070079 -0.0572856)
(-5.60083e-05 -7.72312e-06 4.00257e-05 -0.168129 0.0701067 -0.0572931)
(-4.35051e-06 -1.80332e-06 1.55559e-05 -0.167955 0.0698998 -0.0575483)
(-1.50312e-06 3.51322e-08 2.17692e-05 -0.168081 0.0700644 -0.0574295)
(-7.79103e-08 -5.8554e-06 4.13014e-06 -0.167949 0.0699023 -0.057545)
(-9.2822e-07 6.37297e-06 2.64891e-05 -0.167948 0.0698998 -0.0575503)
(-5.99904e-06 6.58221e-06 -1.10812e-05 -0.168118 0.0700846 -0.0573412)
(2.46647e-06 -6.01576e-06 -4.87874e-05 -0.168006 0.0699705 -0.0574543)
(7.29363e-06 -5.25992e-07 3.62791e-05 -0.167832 0.0697852 -0.0576758)
(-4.1095e-06 5.22735e-06 5.37844e-05 -0.168108 0.0700743 -0.0573669)
(-3.54763e-06 8.50098e-07 -2.90354e-05 -0.168125 0.0700823 -0.0573558)
(3.25257e-06 9.83876e-07 4.16894e-06 -0.168021 0.0699813 -0.0574301)
(-2.88059e-06 -1.23325e-06 2.95764e-05 -0.168129 0.0700919 -0.0573237)
(-1.95291e-06 2.34674e-07 -3.64812e-05 -0.168125 0.0700823 -0.0573576)
(3.10446e-07 6.85387e-07 -1.89325e-06 -0.16802 0.0699804 -0.057433)
(-1.9188e-06 -6.64644e-06 -2.2228e-05 -0.16811 0.0700781 -0.0573563)
(4.65731e-06 -6.32832e-06 -2.33294e-05 -0.167836 0.0697889 -0.0576574)
(2.79187e-06 5.76855e-06 4.22117e-05 -0.167932 0.0698911 -0.0575822)
(-5.51567e-06 6.45583e-06 1.04177e-05 -0.168116 0.0700782 -0.0573574)
(-3.47697e-06 -5.89405e-06 -2.79856e-05 -0.168119 0.0700859 -0.0573437)
(-1.58059e-09 -8.4221e-07 -2.29968e-05 -0.167957 0.0699044 -0.057539)
(-7.98205e-06 1.62735e-06 -2.10924e-05 -0.168104 0.0700703 -0.0573759)
(-5.47349e-05 1.78993e-06 -9.11684e-05 -0.167967 0.0699289 -0.05748)
(-0.000316016 -4.59826e-05 -0.000444138 -0.16792 0.0699564 -0.0574153)
(-0.00193211 -0.000335738 -0.00253951 -0.166423 0.0691754 -0.0594449)
(-0.0167866 -0.000536388 -0.00940108 -0.156508 0.0651558 -0.0696662)
(-0.0856123 0.000265422 -0.0482041 -0.147167 0.0614385 -0.025229)
(-0.0724201 -1.35229e-05 0.0465191 -0.0981093 0.0682267 -0.128919)
(-0.0164075 0.000681801 0.00804482 -0.103222 0.0717864 -0.174978)
(-0.00180473 0.000432673 0.00155199 -0.109263 0.0762749 -0.171289)
(-0.000207655 7.10167e-05 0.0002318 -0.110434 0.0774357 -0.170601)
(-2.79959e-05 -6.14401e-06 3.11344e-05 -0.110459 0.0774697 -0.170645)
(-4.82107e-06 -2.9848e-06 2.80216e-05 -0.110244 0.0774062 -0.170652)
(-2.14814e-06 6.17633e-07 2.18152e-05 -0.110413 0.0774194 -0.170662)
(-1.53544e-06 -1.65559e-06 -6.25442e-06 -0.110222 0.0774135 -0.170647)
(-7.95333e-07 2.00765e-06 2.97056e-05 -0.110224 0.0774079 -0.170651)
(-8.73981e-07 7.1017e-06 2.96376e-05 -0.110435 0.0774315 -0.170662)
(-3.08314e-07 3.32249e-06 -1.30481e-05 -0.110341 0.0776087 -0.170627)
(-9.68883e-08 -5.70459e-06 1.58608e-06 -0.110127 0.0775784 -0.170604)
(-7.70962e-07 -6.96888e-06 2.03493e-05 -0.110435 0.0774177 -0.170663)
(-2.98912e-07 6.02646e-06 1.76766e-06 -0.110412 0.0772798 -0.170645)
(1.58244e-07 3.754e-06 -3.87034e-07 -0.110356 0.0776232 -0.170625)
(-4.11072e-07 -8.83193e-06 -1.93804e-06 -0.110445 0.0774416 -0.170657)
(-9.4005e-08 5.09848e-06 -1.81418e-07 -0.110411 0.07728 -0.170646)
(2.34606e-08 3.71324e-06 -1.98408e-06 -0.110356 0.0776221 -0.170627)
(-5.50394e-07 -2.19097e-06 -2.22351e-05 -0.110425 0.0774213 -0.170666)
(-6.80755e-07 -1.86617e-06 -2.45992e-05 -0.110128 0.0775919 -0.170614)
(-7.06777e-07 -3.98968e-06 8.05604e-06 -0.110206 0.0773934 -0.170643)
(-8.45766e-07 1.88638e-06 9.01633e-06 -0.110445 0.0774218 -0.17067)
(-1.11902e-06 -1.1795e-06 -3.34616e-05 -0.110436 0.0774356 -0.170665)
(-1.65223e-06 -1.71618e-06 -1.91288e-05 -0.110236 0.0774136 -0.170648)
(-5.4283e-06 3.37283e-06 -2.5575e-05 -0.110435 0.07741 -0.170669)
(-2.84135e-05 9.49293e-06 -4.90453e-05 -0.110254 0.0774566 -0.170623)
(-0.000207429 -7.37065e-05 -0.000211739 -0.110326 0.0775988 -0.170566)
(-0.0018048 -0.000437528 -0.00155339 -0.109228 0.0761144 -0.171286)
(-0.0164077 -0.00067836 -0.00804695 -0.103221 0.0717845 -0.174976)
(-0.0724193 1.35135e-05 -0.0465201 -0.0981134 0.0682176 -0.128918)
(-0.0763215 0.00117094 0.0467845 -0.0575768 0.0582092 -0.153346)
(-0.016533 0.000870561 0.00788441 -0.060233 0.0606866 -0.201948)
(-0.00180701 0.000519481 0.00137655 -0.0633844 0.0647591 -0.199906)
(-0.000187774 9.83385e-05 0.00017088 -0.0641232 0.065939 -0.199603)
(-1.91224e-05 -5.77088e-07 5.44042e-05 -0.0641263 0.065983 -0.199661)
(-4.98402e-06 -4.74416e-06 3.12364e-05 -0.0640235 0.0660958 -0.199615)
(-2.06254e-06 2.29567e-06 2.08379e-05 -0.0641001 0.0659273 -0.199663)
(-2.3126e-06 4.41146e-06 1.83104e-05 -0.0640181 0.0661955 -0.199633)
(-1.55416e-06 -2.87404e-06 3.48813e-06 -0.064027 0.0661895 -0.199634)
(1.36733e-06 -2.77282e-06 4.89173e-06 -0.0641011 0.0659478 -0.199671)
(-5.43102e-07 3.08154e-06 1.56994e-05 -0.0640917 0.0659248 -0.199654)
(-3.35827e-06 -2.58214e-06 2.29685e-06 -0.0640075 0.0661736 -0.199608)
(-1.36112e-07 -3.31563e-06 -2.21911e-05 -0.064082 0.0658412 -0.199623)
(1.66091e-06 3.57342e-06 -2.27057e-07 -0.0640334 0.065951 -0.19965)
(-7.57211e-07 5.38466e-07 1.24468e-05 -0.064098 0.0659405 -0.199657)
(-2.11682e-08 -8.91379e-07 -1.61512e-05 -0.0641065 0.0659582 -0.199668)
(1.13387e-06 4.05806e-07 1.32307e-06 -0.0640338 0.065951 -0.199652)
(4.3006e-07 2.48181e-07 1.3094e-05 -0.0640979 0.0659391 -0.199658)
(-2.21756e-07 2.28495e-06 5.05448e-06 -0.0640945 0.0659377 -0.19967)
(-2.93773e-06 2.79183e-06 2.38585e-06 -0.0640073 0.0661739 -0.199619)
(-2.61865e-06 -5.30176e-06 -1.75307e-05 -0.0640076 0.0661887 -0.199624)
(1.11996e-06 -2.56446e-06 -1.90794e-05 -0.0640913 0.0658478 -0.199652)
(1.06727e-07 4.94008e-06 -8.85223e-06 -0.0641006 0.0659537 -0.199672)
(-2.47214e-06 -3.9075e-06 -1.70759e-05 -0.0640354 0.0661928 -0.199635)
(-4.34452e-06 3.84968e-06 -2.6447e-05 -0.0640943 0.0658355 -0.199646)
(-2.08103e-05 4.07526e-06 -4.45671e-05 -0.0640483 0.0662339 -0.199618)
(-0.000189833 -0.000102589 -0.000190565 -0.0641014 0.0659019 -0.199584)
(-0.001806 -0.000519145 -0.00138243 -0.0633117 0.0647392 -0.199894)
(-0.016532 -0.000871015 -0.0078733 -0.060231 0.060685 -0.201945)
(-0.0763191 -0.00117073 -0.0467849 -0.0575865 0.0581976 -0.153346)
(-0.0818944 0.00181401 0.048406 -0.0351821 0.0409444 -0.154241)
(-0.0170918 0.000879323 0.00815642 -0.0372452 0.0422989 -0.205366)
(-0.00186883 0.000494823 0.00149567 -0.0391218 0.0456412 -0.203477)
(-0.000207596 0.000100627 0.000191137 -0.0396463 0.0465225 -0.203186)
(-2.08512e-05 -4.18867e-07 3.97079e-05 -0.0396563 0.0465692 -0.203249)
(-4.12254e-06 -6.32834e-06 3.19294e-05 -0.039599 0.0464684 -0.203211)
(-2.24324e-06 1.37128e-06 2.92262e-05 -0.0396237 0.046458 -0.203239)
(-2.15854e-06 1.39233e-06 1.48642e-05 -0.0396409 0.046542 -0.203261)
(-1.09506e-06 5.41711e-07 8.14325e-06 -0.0396352 0.0464691 -0.203223)
(8.27798e-07 4.33615e-07 7.41053e-06 -0.0396321 0.0465421 -0.203257)
(-1.05456e-06 -2.10886e-06 1.09883e-05 -0.0396284 0.0465301 -0.203252)
(-2.74727e-06 8.19199e-07 -7.03933e-06 -0.039634 0.0465227 -0.203228)
(3.90297e-07 6.00987e-06 -4.93518e-06 -0.0395875 0.0465445 -0.203235)
(1.07844e-06 8.3959e-07 9.47773e-06 -0.0396082 0.046707 -0.203261)
(-8.30987e-07 -3.44237e-06 -6.9916e-07 -0.0396265 0.0465442 -0.203255)
(2.32209e-07 4.15836e-06 -2.67127e-06 -0.0396357 0.046552 -0.203258)
(9.17282e-07 -6.74696e-07 1.14686e-06 -0.0396097 0.0467066 -0.203263)
(1.10335e-07 -4.13995e-06 1.38878e-06 -0.0396258 0.0465429 -0.203255)
(-5.17063e-07 -1.53952e-06 7.42437e-07 -0.0396283 0.0465332 -0.203235)
(-2.55126e-06 -8.25952e-07 -2.55567e-06 -0.0396337 0.0465302 -0.203255)
(-2.09121e-06 1.27257e-06 -2.20403e-05 -0.0396354 0.0465318 -0.203237)
(9.45027e-07 1.54873e-06 -1.53681e-05 -0.0395974 0.046538 -0.203227)
(-3.40672e-07 -1.40643e-06 -2.76932e-06 -0.0396295 0.0465495 -0.203261)
(-2.39185e-06 -3.73508e-06 -2.62686e-05 -0.039639 0.046471 -0.203246)
(-3.54936e-06 4.62448e-06 -2.73506e-05 -0.0395912 0.0464599 -0.203204)
(-2.2025e-05 -3.31258e-07 -3.40847e-05 -0.0396646 0.0465694 -0.203244)
(-0.000209512 -9.79089e-05 -0.000192713 -0.0396326 0.0464976 -0.203177)
(-0.00186864 -0.000492428 -0.00150211 -0.0390976 0.0457839 -0.203451)
(-0.0170901 -0.000884674 -0.00815947 -0.0372437 0.0422979 -0.205363)
(-0.0818993 -0.00181329 -0.0484048 -0.0351732 0.0408684 -0.154225)
(-0.0860743 0.00177717 0.050405 -0.0220689 0.0264108 -0.152241)
(-0.0177761 0.000769863 0.00856954 -0.0235874 0.0267981 -0.205723)
(-0.00195222 0.000412304 0.0016664 -0.0249421 0.0294155 -0.203759)
(-0.000235384 8.64851e-05 0.000211644 -0.0252981 0.0299863 -0.203428)
(-2.61449e-05 5.64144e-06 3.90446e-05 -0.0253001 0.0299768 -0.203484)
(-3.83396e-06 -4.3699e-06 2.07464e-05 -0.025257 0.0301229 -0.20351)
(-1.9392e-06 -2.7218e-06 2.8065e-05 -0.0252581 0.0299476 -0.203486)
(-1.90166e-06 2.12282e-06 1.34039e-05 -0.0252953 0.0300223 -0.203512)
(-5.58502e-07 -8.04419e-08 9.46088e-06 -0.0252689 0.0300247 -0.2035)
(8.89181e-08 -2.09893e-06 1.69294e-05 -0.0252977 0.0300132 -0.203488)
(-1.24636e-06 -2.01067e-06 8.10803e-06 -0.0252803 0.0299529 -0.20349)
(-1.87162e-06 4.07994e-06 1.22667e-06 -0.0252956 0.030016 -0.203498)
(1.77533e-07 4.8003e-06 -3.58768e-06 -0.0252855 0.0301123 -0.203514)
(6.91426e-07 -1.41475e-06 1.05238e-06 -0.0253124 0.0300376 -0.203511)
(-7.04087e-07 -2.10401e-06 4.88956e-07 -0.0252903 0.0300174 -0.203507)
(1.36083e-07 2.49422e-06 -3.236e-06 -0.0253014 0.0300198 -0.203507)
(8.81265e-07 -4.1073e-07 6.80628e-07 -0.0253135 0.0300366 -0.203513)
(-1.5757e-07 -3.24454e-06 2.90499e-06 -0.0252895 0.0300167 -0.203507)
(-8.7484e-07 -1.59875e-06 -1.03237e-06 -0.0252965 0.0300124 -0.203478)
(-1.70621e-06 -1.99423e-07 -4.59528e-06 -0.0252936 0.0300157 -0.203508)
(-1.38057e-06 2.74814e-06 -1.02634e-05 -0.0252941 0.0300211 -0.203503)
(-3.44948e-08 1.79418e-06 -1.2923e-05 -0.0252731 0.0300622 -0.203502)
(-9.5423e-07 -1.24088e-06 -2.11352e-05 -0.0252913 0.0300197 -0.20351)
(-1.60348e-06 -9.007e-07 -2.60215e-05 -0.0252761 0.0300182 -0.203502)
(-3.29543e-06 2.36684e-06 -1.75174e-05 -0.0252529 0.0300522 -0.203488)
(-2.70441e-05 -5.09277e-06 -3.51905e-05 -0.0253145 0.0300385 -0.203493)
(-0.000236777 -8.66748e-05 -0.000213471 -0.0252959 0.0299698 -0.203418)
(-0.00195227 -0.000409616 -0.00166992 -0.0249589 0.0294303 -0.203754)
(-0.0177734 -0.000771084 -0.00858157 -0.0235868 0.026797 -0.205722)
(-0.0860819 -0.00177512 -0.0503933 -0.0220375 0.0264012 -0.152229)
(-0.0887577 0.00139711 0.0521521 -0.0139579 0.0164872 -0.151221)
(-0.0183726 0.000608396 0.00897013 -0.0148892 0.0163965 -0.206544)
(-0.0020336 0.000319719 0.00181869 -0.0159467 0.0182032 -0.204481)
(-0.000260118 7.38206e-05 0.000234568 -0.0162003 0.0187332 -0.204179)
(-3.15042e-05 7.9723e-06 4.68918e-05 -0.0161896 0.0187735 -0.204244)
(-4.34721e-06 -2.25215e-06 2.70178e-05 -0.0162078 0.0188541 -0.204279)
(-1.63544e-06 -3.73739e-06 2.05523e-05 -0.0161634 0.0187812 -0.204256)
(-1.68753e-06 1.50774e-06 2.00338e-05 -0.0162029 0.0187695 -0.204266)
(-9.44207e-07 -1.6076e-06 9.43065e-06 -0.0161954 0.0188421 -0.204278)
(-1.95783e-07 -2.7864e-06 1.34709e-06 -0.0161956 0.0187192 -0.204251)
(-7.67953e-07 -1.38486e-06 6.90449e-06 -0.016175 0.0187595 -0.204255)
(-1.22111e-06 2.89869e-07 8.71723e-06 -0.0161972 0.01872 -0.20423)
(8.74896e-08 4.58487e-06 -1.66774e-06 -0.0162153 0.0187294 -0.204252)
(2.82369e-07 7.37833e-07 1.88754e-06 -0.0162149 0.0187825 -0.204265)
(-7.06013e-07 -2.44685e-06 4.54102e-07 -0.0162013 0.0187663 -0.204264)
(1.12005e-07 1.70027e-06 -2.42424e-06 -0.0161997 0.0187203 -0.204253)
(5.97939e-07 6.92626e-07 6.56069e-09 -0.0162152 0.0187812 -0.204267)
(-3.19524e-07 -4.02648e-06 1.66173e-06 -0.0162005 0.0187663 -0.204264)
(-7.47621e-07 -1.34233e-06 -1.88366e-06 -0.0161981 0.0187188 -0.20423)
(-1.41807e-06 1.27132e-06 -4.6758e-06 -0.016207 0.0187654 -0.204261)
(-1.05046e-06 2.82202e-06 -1.76469e-05 -0.0162099 0.0187681 -0.204242)
(1.62563e-07 1.71561e-06 -1.17114e-05 -0.016192 0.0187777 -0.204262)
(-1.40367e-06 -4.63402e-07 -3.98683e-06 -0.0162014 0.0187678 -0.204267)
(-1.89411e-06 7.02928e-07 -2.70715e-05 -0.0161926 0.0187927 -0.204244)
(-3.35163e-06 4.13491e-07 -2.52221e-05 -0.0161845 0.0187953 -0.204256)
(-3.23813e-05 -8.24837e-06 -3.55494e-05 -0.0162202 0.0187779 -0.204244)
(-0.000261324 -7.25864e-05 -0.000245663 -0.0161954 0.0186765 -0.204138)
(-0.00203317 -0.000316738 -0.00182016 -0.015955 0.0182131 -0.204498)
(-0.0183697 -0.000607113 -0.00897235 -0.0148891 0.0163954 -0.206542)
(-0.0887573 -0.00139601 -0.0521393 -0.0139457 0.0165525 -0.151223)
(-0.0904137 0.00096382 0.053435 -0.00882589 0.0102546 -0.150948)
(-0.0188086 0.000447571 0.00930043 -0.00930345 0.0100057 -0.207542)
(-0.00210039 0.000237698 0.00193338 -0.0101051 0.0113266 -0.205479)
(-0.000279675 5.8336e-05 0.000275445 -0.0103179 0.0116819 -0.205158)
(-3.68085e-05 6.80694e-06 4.9677e-05 -0.0103254 0.0117749 -0.205224)
(-4.90191e-06 -8.6837e-07 1.80648e-05 -0.0103431 0.0117334 -0.205252)
(-1.2909e-06 -2.59197e-06 2.03734e-05 -0.0103078 0.011773 -0.205235)
(-1.74548e-06 -1.30966e-06 1.9474e-05 -0.0103248 0.0117142 -0.20525)
(-8.74576e-07 -2.49151e-07 1.67823e-06 -0.0103346 0.0117236 -0.205253)
(-2.20733e-07 -1.46456e-07 8.44531e-06 -0.0103035 0.0117124 -0.205246)
(-1.11742e-06 -1.38699e-06 5.73531e-06 -0.0103133 0.0117669 -0.205255)
(-4.87997e-07 -1.62305e-06 -5.25535e-06 -0.0103089 0.0117139 -0.205237)
(6.42634e-07 2.60245e-06 7.8633e-06 -0.01031 0.0116797 -0.20523)
(-4.24271e-07 5.88932e-07 9.04984e-06 -0.0103315 0.0117227 -0.205246)
(-8.54612e-07 -7.59557e-07 -7.12096e-06 -0.0103242 0.0117128 -0.205248)
(4.08529e-07 1.19072e-06 -1.68378e-06 -0.0103067 0.0117129 -0.205242)
(4.7545e-08 -4.82055e-07 6.86148e-06 -0.0103316 0.0117212 -0.205248)
(-5.72459e-07 -2.52355e-06 -7.77757e-06 -0.0103234 0.0117134 -0.205248)
(-1.49682e-07 -1.8603e-06 -2.18587e-06 -0.0103099 0.0117122 -0.205241)
(-9.17896e-07 -8.96302e-07 3.32291e-06 -0.0103202 0.0116701 -0.205234)
(-9.29989e-07 4.61075e-06 -9.60863e-06 -0.010327 0.0116757 -0.205218)
(-4.95067e-07 2.76317e-06 -1.05806e-05 -0.0103251 0.0117805 -0.205258)
(-1.73358e-06 -1.39017e-06 -1.9253e-05 -0.010324 0.0117142 -0.205251)
(-1.37393e-06 1.94774e-06 -2.69172e-05 -0.0103166 0.0117226 -0.205242)
(-3.92731e-06 -1.278e-06 -1.66671e-05 -0.0103128 0.0117415 -0.205239)
(-3.72307e-05 -8.56674e-06 -4.54424e-05 -0.0103281 0.0116768 -0.205217)
(-0.000280369 -5.43131e-05 -0.000277979 -0.0103059 0.0116759 -0.205124)
(-0.00210028 -0.000235939 -0.00192894 -0.0101105 0.0113309 -0.205474)
(-0.0188066 -0.000447312 -0.00930311 -0.00930449 0.0100039 -0.207538)
(-0.090409 -0.000964908 -0.0534296 -0.00883277 0.0102663 -0.150952)
(-0.0914314 0.000612111 0.0542833 -0.00557244 0.00641211 -0.150928)
(-0.0190946 0.000310668 0.00956279 -0.00577307 0.0061597 -0.208339)
(-0.00215054 0.000172132 0.00202102 -0.00638293 0.00712461 -0.206287)
(-0.000294475 4.17855e-05 0.000287521 -0.00654159 0.0073364 -0.205958)
(-4.02655e-05 5.45665e-06 5.18857e-05 -0.00656263 0.00737393 -0.206023)
(-5.47989e-06 1.09517e-06 2.41551e-05 -0.00656178 0.00737696 -0.206053)
(-1.47293e-06 -1.87555e-06 1.87044e-05 -0.00655654 0.0074223 -0.20606)
(-1.43182e-06 -1.97274e-06 1.28582e-05 -0.00655009 0.00736393 -0.206055)
(-7.3398e-07 1.52196e-06 8.74037e-06 -0.00655609 0.00737091 -0.206056)
(-5.50152e-07 -2.08416e-07 7.75553e-06 -0.00654289 0.00741319 -0.20606)
(-1.11629e-06 -1.83744e-06 4.77438e-06 -0.00655409 0.00736852 -0.206053)
(-1.76156e-07 1.4233e-06 -4.82949e-06 -0.00653923 0.00737613 -0.206048)
(6.94908e-07 9.26441e-07 2.1493e-06 -0.00653267 0.00741758 -0.206048)
(-4.13819e-07 -2.13348e-06 8.94323e-06 -0.00655355 0.00736917 -0.20605)
(-7.87758e-07 1.06133e-06 -1.29431e-07 -0.00655111 0.00736296 -0.206052)
(6.60686e-08 8.95134e-07 -1.18279e-06 -0.00654469 0.00741256 -0.206057)
(-1.49289e-07 -1.96642e-06 -6.11823e-07 -0.00655361 0.00736769 -0.206053)
(-5.99496e-07 -1.17882e-06 -1.83798e-06 -0.00654956 0.00736399 -0.206052)
(-3.89962e-07 -4.71188e-07 -9.58829e-06 -0.00654379 0.00737472 -0.206049)
(-2.95134e-07 -1.27455e-06 -1.12554e-05 -0.00653422 0.0073619 -0.206042)
(-1.56097e-07 2.29102e-06 -1.3748e-06 -0.00653074 0.00732766 -0.206038)
(-7.99224e-07 2.09712e-06 -2.1154e-06 -0.00656131 0.00737625 -0.206054)
(-2.05318e-06 7.89451e-07 -1.25096e-05 -0.00654968 0.00736464 -0.206055)
(-1.71191e-06 3.52869e-06 -2.63115e-05 -0.00655018 0.00741987 -0.20606)
(-4.56878e-06 -1.60767e-06 -3.03039e-05 -0.00654644 0.00742727 -0.20605)
(-4.00504e-05 -8.91357e-06 -4.19069e-05 -0.00653823 0.00736588 -0.206024)
(-0.000294966 -4.03673e-05 -0.00028093 -0.00653672 0.00734236 -0.205948)
(-0.00215091 -0.000171075 -0.00202275 -0.00638708 0.00712603 -0.206279)
(-0.0190936 -0.000310319 -0.00956688 -0.00577496 0.00615881 -0.208317)
(-0.0914279 -0.000613318 -0.0542805 -0.00557664 0.00642131 -0.150934)
(-0.0920578 0.000369192 0.0548087 -0.00351863 0.00402558 -0.150956)
(-0.0192697 0.000204298 0.00973968 -0.00357761 0.00382484 -0.208866)
(-0.00218464 0.000122022 0.00208604 -0.00403074 0.00445021 -0.206817)
(-0.000305512 3.08482e-05 0.000301904 -0.00414233 0.00463309 -0.206499)
(-4.28373e-05 4.34586e-06 5.26934e-05 -0.00415932 0.00466189 -0.20658)
(-5.95374e-06 8.8208e-07 2.41358e-05 -0.00415822 0.00466314 -0.206597)
(-1.59482e-06 -1.23791e-06 1.7772e-05 -0.00416362 0.00466727 -0.206601)
(-1.2049e-06 -1.1143e-06 1.27845e-05 -0.00415108 0.00465584 -0.2066)
(-6.95554e-07 8.48982e-07 9.19263e-06 -0.00415434 0.00465954 -0.206599)
(-8.94544e-07 -1.64563e-07 7.73396e-06 -0.00415768 0.00466288 -0.206586)
(-8.42595e-07 -2.94947e-07 -2.86531e-06 -0.0041536 0.00466046 -0.206596)
(3.04159e-07 2.26278e-06 2.10443e-06 -0.0041432 0.00466302 -0.20659)
(2.04092e-07 -1.66176e-07 9.54477e-06 -0.00415511 0.00470753 -0.206598)
(-5.73084e-07 -3.07995e-06 1.84482e-06 -0.00415301 0.00465938 -0.206595)
(-4.52418e-07 4.13219e-07 6.71424e-08 -0.00415564 0.00465509 -0.206596)
(-1.25221e-07 9.27674e-07 -8.40944e-07 -0.00415801 0.00466225 -0.206585)
(-4.85478e-07 -1.14915e-06 -1.15304e-06 -0.00415277 0.00465797 -0.206598)
(-3.70966e-07 -9.98551e-07 -8.91785e-06 -0.00415192 0.00465557 -0.206596)
(-3.41828e-08 9.36595e-07 -3.00846e-06 -0.00414032 0.00462747 -0.206569)
(-3.64118e-07 1.72376e-06 -5.0136e-06 -0.00415006 0.00469835 -0.206596)
(-1.09797e-07 3.97535e-07 -7.08966e-06 -0.0041333 0.0047022 -0.206595)
(-7.8156e-07 -8.68321e-07 -1.27201e-06 -0.00415793 0.0046644 -0.206596)
(-1.86158e-06 4.94424e-07 -1.26918e-05 -0.00415094 0.00465674 -0.2066)
(-1.65445e-06 3.50464e-06 -1.85775e-05 -0.00416109 0.00466512 -0.206599)
(-5.78578e-06 3.67496e-07 -2.35004e-05 -0.00416373 0.00471295 -0.206597)
(-4.28842e-05 -8.1283e-06 -5.86153e-05 -0.00414928 0.00470017 -0.206577)
(-0.00030521 -3.18632e-05 -0.000302071 -0.00413252 0.00459852 -0.206481)
(-0.00218486 -0.00012105 -0.00208014 -0.00403339 0.0044499 -0.206809)
(-0.0192696 -0.000203527 -0.00974212 -0.00357766 0.00382315 -0.208865)
(-0.0920562 -0.000369999 -0.0548078 -0.00351921 0.00403237 -0.15096)
(-0.0924427 0.000216289 0.0551216 -0.00222873 0.00252684 -0.150981)
(-0.0193725 0.000129967 0.00985519 -0.00222533 0.00238485 -0.20919)
(-0.0022064 8.45471e-05 0.0021327 -0.00254355 0.00279963 -0.20715)
(-0.00031348 2.2167e-05 0.000312611 -0.00262874 0.00292879 -0.206839)
(-4.47631e-05 3.32306e-06 5.51833e-05 -0.00264618 0.00295149 -0.206911)
(-6.36106e-06 9.67646e-07 2.43564e-05 -0.00264174 0.00295085 -0.20694)
(-1.70657e-06 -7.51014e-07 1.71684e-05 -0.00264445 0.00295394 -0.206942)
(-1.09942e-06 -6.96997e-07 1.23531e-05 -0.00263712 0.00294686 -0.206943)
(-6.71476e-07 2.43364e-07 9.22779e-06 -0.00263883 0.00294877 -0.206943)
(-7.65253e-07 -1.38968e-07 7.57314e-06 -0.00264144 0.00295263 -0.206931)
(-6.79565e-07 1.31804e-06 3.89691e-06 -0.00263896 0.00295 -0.206939)
(4.39311e-08 1.28531e-06 2.5329e-06 -0.00263945 0.00299206 -0.206939)
(-1.25419e-07 -1.33297e-06 2.83942e-06 -0.0026481 0.0029569 -0.206937)
(-4.60767e-07 -2.76412e-06 1.28735e-06 -0.00263825 0.00294949 -0.206938)
(-1.446e-07 5.71527e-08 -1.25674e-07 -0.00263478 0.00291125 -0.206933)
(-1.66485e-07 1.55331e-06 -5.57181e-07 -0.00264039 0.00295118 -0.20694)
(-6.74152e-07 -8.27098e-07 -1.292e-06 -0.0026377 0.00294847 -0.206941)
(-3.02274e-07 1.25544e-06 -9.42389e-06 -0.00264116 0.00294649 -0.206939)
(2.76651e-07 -8.955e-08 -2.93619e-06 -0.00262379 0.00299183 -0.206935)
(-2.79455e-07 2.1788e-07 2.08832e-06 -0.00264015 0.0029153 -0.206929)
(-4.82824e-07 1.22395e-06 -6.49992e-06 -0.00264422 0.00299336 -0.20694)
(-8.50021e-07 -1.52161e-06 -7.78009e-06 -0.00264201 0.00295154 -0.206938)
(-1.51474e-06 3.29471e-07 -1.25186e-05 -0.00263708 0.00294766 -0.206942)
(-1.65888e-06 1.94837e-06 -1.76671e-05 -0.00264354 0.00295276 -0.20694)
(-6.4925e-06 8.50174e-09 -2.36752e-05 -0.00265306 0.0029583 -0.206936)
(-4.49652e-05 -3.97604e-06 -6.09755e-05 -0.00264548 0.00295058 -0.206916)
(-0.000312909 -2.31996e-05 -0.000312892 -0.00262219 0.00296919 -0.206828)
(-0.00220648 -8.53927e-05 -0.00212637 -0.00254639 0.00279826 -0.207143)
(-0.019373 -0.000128719 -0.0098574 -0.002224 0.00238428 -0.209192)
(-0.0924428 -0.00021676 -0.0551224 -0.00222484 0.00253179 -0.150985)
(-0.0926823 0.000125203 0.0553036 -0.00140992 0.00153914 -0.150995)
(-0.0194314 8.14432e-05 0.00992732 -0.00139637 0.00148377 -0.209385)
(-0.0022198 5.71528e-05 0.00216535 -0.00161512 0.00175255 -0.207356)
(-0.000319122 1.48892e-05 0.000320272 -0.00167902 0.00184251 -0.207049)
(-4.60407e-05 2.39441e-06 5.5263e-05 -0.00168724 0.00182298 -0.207129)
(-6.62391e-06 1.62306e-06 2.4827e-05 -0.00169025 0.00185817 -0.207152)
(-1.88088e-06 -3.84215e-07 1.67755e-05 -0.00169104 0.00185961 -0.207154)
(-1.07574e-06 -4.37392e-07 1.2005e-05 -0.00168687 0.00185622 -0.207155)
(-6.57284e-07 7.31759e-08 8.79911e-06 -0.00168773 0.00185742 -0.207155)
(-6.38021e-07 -1.59658e-07 7.19906e-06 -0.00168802 0.00185958 -0.207156)
(-5.60601e-07 4.20578e-07 4.45002e-06 -0.00168892 0.00185803 -0.207151)
(-9.75997e-08 8.0534e-07 3.01203e-06 -0.00169987 0.00186205 -0.207148)
(-4.70893e-07 -3.39806e-07 2.73381e-06 -0.00169328 0.00186284 -0.207149)
(-4.12678e-07 -1.08814e-06 -6.02147e-06 -0.00168749 0.00185835 -0.207151)
(3.29361e-07 1.0573e-07 -1.53378e-07 -0.00167609 0.00185588 -0.207145)
(-2.45142e-07 4.54926e-07 6.44653e-06 -0.0016876 0.00185998 -0.207153)
(-6.91544e-07 -1.43351e-06 -1.46267e-06 -0.0016866 0.00185789 -0.207153)
(-3.0334e-07 1.97311e-06 -2.77153e-06 -0.00168392 0.00182183 -0.207146)
(-7.80259e-08 1.33446e-06 -9.48761e-06 -0.00169008 0.00190138 -0.207152)
(-5.91365e-10 -2.05466e-06 -4.21266e-06 -0.00167947 0.00185867 -0.207141)
(-3.47579e-07 3.4963e-08 4.45299e-07 -0.00169344 0.00182989 -0.207144)
(-1.01356e-06 4.91801e-08 -8.07009e-06 -0.00169155 0.00185805 -0.20715)
(-1.36827e-06 3.32406e-07 -1.2315e-05 -0.00168679 0.00185692 -0.207154)
(-1.70316e-06 1.01736e-06 -1.69855e-05 -0.00169077 0.00185906 -0.207152)
(-6.79688e-06 -2.76104e-07 -2.36954e-05 -0.0016959 0.00186225 -0.207148)
(-4.64809e-05 -2.92364e-06 -5.59178e-05 -0.00169363 0.00185744 -0.207127)
(-0.000318699 -1.67555e-05 -0.000321295 -0.00168604 0.00184778 -0.207036)
(-0.0022196 -5.75674e-05 -0.0021656 -0.00162047 0.00175076 -0.207349)
(-0.0194322 -7.89727e-05 -0.00992925 -0.00139601 0.00148392 -0.209386)
(-0.0926796 -0.000124933 -0.0553061 -0.00141416 0.00158066 -0.151004)
(-0.0928285 7.18501e-05 0.0554035 -0.000897709 0.000970763 -0.151006)
(-0.0194649 4.82284e-05 0.00998097 -0.000891558 0.000911268 -0.209504)
(-0.00222799 3.74103e-05 0.00218749 -0.00104122 0.0010813 -0.207482)
(-0.000322935 1.10973e-05 0.000319398 -0.00108866 0.00114209 -0.207179)
(-4.67553e-05 1.6009e-06 5.60402e-05 -0.00108766 0.00115275 -0.207258)
(-6.82509e-06 3.53801e-07 3.16126e-05 -0.00109938 0.00115189 -0.207283)
(-2.12146e-06 -8.01608e-08 1.657e-05 -0.00109825 0.0011531 -0.207285)
(-1.06121e-06 -2.50634e-07 1.17869e-05 -0.00109588 0.0011516 -0.207287)
(-6.48036e-07 1.74384e-07 8.74069e-06 -0.00109638 0.00115251 -0.207287)
(-6.35925e-07 -2.43399e-07 7.05391e-06 -0.00109667 0.00115503 -0.207286)
(-4.66987e-07 -8.2425e-07 4.6839e-06 -0.00109876 0.00115204 -0.207282)
(-6.02417e-08 6.54124e-07 3.35861e-06 -0.0010981 0.00112134 -0.207275)
(-4.64504e-07 7.67374e-07 2.55932e-06 -0.00109926 0.00115532 -0.20728)
(-4.27522e-07 2.0727e-07 2.27084e-07 -0.00109646 0.00115333 -0.207282)
(1.6212e-07 1.4159e-07 2.64574e-08 -0.00109794 0.00118766 -0.207281)
(-4.44847e-07 -4.57684e-07 1.54191e-07 -0.00109739 0.00115487 -0.207282)
(-4.9454e-07 -2.37291e-07 -8.45074e-06 -0.00109578 0.00115355 -0.207284)
(1.96672e-07 1.01882e-06 -2.48766e-06 -0.00108368 0.00115236 -0.207277)
(-3.83004e-07 9.69387e-07 3.88022e-06 -0.00110486 0.00115975 -0.207281)
(-4.5311e-07 -4.54569e-07 -1.08814e-05 -0.00109957 0.00118873 -0.207278)
(-3.37017e-08 -1.24917e-06 -6.08409e-06 -0.00108864 0.00115744 -0.207274)
(-8.33395e-07 -6.39173e-07 -1.69483e-06 -0.00110247 0.0011519 -0.207281)
(-1.41362e-06 4.94241e-07 -1.21131e-05 -0.00109563 0.00115252 -0.207285)
(-1.78248e-06 4.51431e-07 -1.66944e-05 -0.00109844 0.00115265 -0.207284)
(-7.21362e-06 -6.08557e-07 -2.3863e-05 -0.00110078 0.00115394 -0.20728)
(-4.76205e-05 -2.44825e-06 -6.34932e-05 -0.00110329 0.00115033 -0.207258)
(-0.000322234 -1.20329e-05 -0.000327329 -0.00108393 0.00111128 -0.207159)
(-0.00222718 -3.73921e-05 -0.00218124 -0.00103875 0.00104562 -0.207472)
(-0.0194659 -4.66097e-05 -0.00997273 -0.000892336 0.00091144 -0.209503)
(-0.0928237 -7.11134e-05 -0.0554117 -0.000910736 0.000970878 -0.151018)
(-0.0929094 4.0276e-05 0.0554705 -0.000608465 0.00061341 -0.151023)
(-0.0194842 2.67562e-05 0.00999634 -0.000590554 0.000538343 -0.209573)
(-0.00223202 2.31854e-05 0.00220187 -0.000694773 0.00064109 -0.207559)
(-0.000325422 7.94192e-06 0.000330331 -0.000731478 0.000680009 -0.207257)
(-4.77944e-05 5.27919e-07 5.74433e-05 -0.000742995 0.000720255 -0.207331)
(-6.92129e-06 -4.06082e-07 2.4864e-05 -0.000742791 0.000685095 -0.207362)
(-2.02721e-06 3.28322e-07 1.65299e-05 -0.000738317 0.000686351 -0.207366)
(-1.06128e-06 -1.25212e-07 1.16451e-05 -0.000736985 0.000685676 -0.207367)
(-6.59578e-07 4.73711e-08 8.88208e-06 -0.000737362 0.000686343 -0.207367)
(-7.83075e-07 -5.39979e-07 7.06777e-06 -0.000738947 0.000688371 -0.207357)
(-3.62445e-07 1.96264e-07 -2.06662e-06 -0.000742256 0.000685339 -0.207362)
(2.28563e-07 8.03893e-07 3.69825e-06 -0.000727888 0.000688158 -0.207354)
(-5.66904e-07 -1.69348e-07 9.15247e-06 -0.000738588 0.000688084 -0.207361)
(-5.59047e-07 -9.92717e-07 1.10367e-07 -0.000737503 0.000687015 -0.207362)
(2.26311e-07 -7.00194e-08 2.64943e-07 -0.00074049 0.000653837 -0.207357)
(-3.14307e-07 8.23495e-07 2.87045e-07 -0.000739872 0.000687753 -0.207353)
(-4.6883e-07 1.23211e-06 -1.98464e-06 -0.00073765 0.000687775 -0.207355)
(-7.89028e-08 6.25358e-07 -2.22024e-06 -0.000734543 0.000722149 -0.207362)
(-3.01378e-07 -1.63145e-06 -2.69228e-06 -0.000742674 0.000690948 -0.20736)
(-3.89008e-07 9.81017e-07 -4.30529e-06 -0.000740738 0.000654202 -0.207355)
(-3.63552e-07 -6.81217e-07 -6.15912e-06 -0.000737374 0.000725161 -0.207358)
(-7.04422e-07 -1.58392e-06 -8.5434e-06 -0.000736193 0.000651541 -0.207357)
(-1.19643e-06 1.06694e-06 -1.2052e-05 -0.000737218 0.000686993 -0.207364)
(-1.91912e-06 1.05673e-07 -1.67051e-05 -0.000739157 0.000685575 -0.207364)
(-7.35707e-06 -1.23175e-06 -2.40203e-05 -0.000739446 0.000686332 -0.207361)
(-4.84047e-05 1.61971e-07 -6.39627e-05 -0.00073602 0.000649882 -0.207335)
(-0.000324806 -5.87689e-06 -0.000338471 -0.000721337 0.000716572 -0.207242)
(-0.00223129 -2.49291e-05 -0.00219581 -0.000682536 0.000640036 -0.207548)
(-0.0194846 -2.76092e-05 -0.00999144 -0.000592051 0.000537279 -0.209571)
(-0.092909 -4.0184e-05 -0.0554678 -0.000606081 0.000575995 -0.151029)
(-0.0929578 2.07598e-05 0.055504 -0.000437378 0.000265042 -0.151027)
(-0.0194945 1.51935e-05 0.0100102 -0.000421692 0.000282354 -0.209613)
(-0.00223437 1.24673e-05 0.00221047 -0.000499108 0.00033711 -0.207603)
(-0.000327003 2.81105e-06 0.000334151 -0.000529313 0.000358415 -0.207292)
(-4.82147e-05 -5.46797e-07 5.64229e-05 -0.000541054 0.000327035 -0.207384)
(-6.82663e-06 1.30555e-06 2.51968e-05 -0.000531207 0.00032732 -0.207405)
(-2.09794e-06 1.09887e-06 1.65362e-05 -0.000533871 0.000361814 -0.207412)
(-1.14669e-06 -4.32665e-08 1.15539e-05 -0.000533249 0.000361623 -0.207412)
(-7.31706e-07 -1.14207e-07 8.59555e-06 -0.000533561 0.000362045 -0.207413)
(-5.60487e-07 -1.21935e-06 6.62772e-06 -0.000534495 0.000361921 -0.207412)
(-1.77715e-07 1.35442e-06 4.93363e-06 -0.000531075 0.000327708 -0.207405)
(-1.29236e-07 1.39122e-06 4.03222e-06 -0.000532924 0.000397946 -0.207404)
(-8.37868e-07 -1.17544e-06 2.42381e-06 -0.000535104 0.000363786 -0.207407)
(-4.2984e-07 -1.89429e-07 -6.67579e-06 -0.000533596 0.00036267 -0.207408)
(5.44314e-07 -3.57281e-07 -8.19998e-08 -0.000526191 0.00036292 -0.2074)
(-1.72497e-07 1.51129e-08 6.8964e-06 -0.000536365 0.000360726 -0.207408)
(-5.51552e-07 8.42383e-07 -1.52236e-06 -0.000534057 0.000362776 -0.20741)
(-3.72853e-07 2.96652e-07 -1.69237e-06 -0.00053911 0.000364228 -0.207408)
(-3.0152e-07 -1.93977e-07 -9.25316e-06 -0.000537272 0.000363522 -0.207397)
(-2.46436e-07 4.73332e-07 -4.1483e-06 -0.000524766 0.000363621 -0.2074)