/*--------------------------------*- C++ -*----------------------------------*\
| =========                 |                                                 |
| \\      /  F ield         | OpenFOAM: The Open Source CFD Toolbox           |
|  \\    /   O peration     | Version:  2106                                  |
|   \\  /    A nd           | Website:  www.openfoam.com                      |
|    \\/     M anipulation  |                                                 |
\*---------------------------------------------------------------------------*/
FoamFile
{
    version     2.0;
    format      ascii;
    arch        "LSB;label=32;scalar=64";
    class       volSymmTensorField;
    location    "297";
    object      sigma;
}
// * * * * * * * * * * * * * * * * * * * * * * * * * * * * * * * * * * * * * //

dimensions      [1 -1 -2 0 0 0 0];

internalField   nonuniform List<symmTensor> 
9000
(
(5.39488e+07 -136952 2.48659e+07 2.21951e+07 3.16958e+07 8.51001e+07)
(9.63543e+07 277200 4.85067e+06 2.42755e+07 3.36118e+07 6.90739e+07)
(1.10976e+08 173301 1.32941e+06 2.61198e+07 3.56906e+07 8.13181e+07)
(1.12782e+08 26206.8 234888 2.62601e+07 3.61511e+07 8.33966e+07)
(1.12999e+08 -3984.07 20647.8 2.6297e+07 3.61654e+07 8.34729e+07)
(1.13012e+08 -930.265 8024.69 2.63729e+07 3.60587e+07 8.33276e+07)
(1.13012e+08 18.1234 11229.9 2.63059e+07 3.61436e+07 8.33869e+07)
(1.13021e+08 -3020.58 2130.59 2.63819e+07 3.606e+07 8.33354e+07)
(1.13018e+08 3287.58 13664.8 2.63803e+07 3.60587e+07 8.33304e+07)
(1.13031e+08 3395.52 -5716.37 2.63079e+07 3.6154e+07 8.34537e+07)
(1.13039e+08 -3103.3 -25167.6 2.63698e+07 3.60952e+07 8.33991e+07)
(1.13022e+08 -271.339 18715 2.64394e+07 3.59996e+07 8.3265e+07)
(1.13025e+08 2696.6 27745.4 2.63068e+07 3.61487e+07 8.34341e+07)
(1.13023e+08 438.534 -14978.3 2.62955e+07 3.61528e+07 8.34374e+07)
(1.13044e+08 507.545 2150.6 2.63658e+07 3.61008e+07 8.34158e+07)
(1.13037e+08 -636.19 15257.3 2.63068e+07 3.61578e+07 8.34673e+07)
(1.13024e+08 121.059 -18819.3 2.62959e+07 3.61529e+07 8.34366e+07)
(1.1304e+08 353.566 -976.66 2.63647e+07 3.61003e+07 8.34123e+07)
(1.13032e+08 -3428.65 -11466.6 2.6311e+07 3.61507e+07 8.34447e+07)
(1.13025e+08 -3264.54 -12034.8 2.64425e+07 3.60015e+07 8.32798e+07)
(1.13014e+08 2975.78 21775.4 2.63827e+07 3.60542e+07 8.33083e+07)
(1.13025e+08 3330.32 5374.08 2.63028e+07 3.61507e+07 8.34392e+07)
(1.13032e+08 -3040.52 -14436.7 2.63072e+07 3.61547e+07 8.34521e+07)
(1.1302e+08 -434.465 -11863.2 2.63768e+07 3.60611e+07 8.33376e+07)
(1.13019e+08 839.489 -10880.8 2.63048e+07 3.61466e+07 8.34254e+07)
(1.12989e+08 923.36 -47030.4 2.63697e+07 3.60737e+07 8.33657e+07)
(1.12786e+08 -23720.7 -229114 2.63246e+07 3.60879e+07 8.33301e+07)
(1.10967e+08 -173195 -1.31004e+06 2.61122e+07 3.5685e+07 8.12981e+07)
(9.63521e+07 -276703 -4.84967e+06 2.42752e+07 3.36114e+07 6.90735e+07)
(5.39474e+07 136921 -2.48667e+07 2.21935e+07 3.16938e+07 8.50969e+07)
(4.17508e+07 -6975.96 2.39974e+07 2.84987e+07 3.51956e+07 1.26053e+07)
(7.28652e+07 351716 4.15002e+06 2.80809e+07 3.70319e+07 -8.93552e+06)
(8.60158e+07 223200 800614 3.05822e+07 3.93474e+07 -1.41503e+06)
(8.73502e+07 36634.9 119577 3.04884e+07 3.99462e+07 -549503)
(8.74943e+07 -3169.47 16061.1 3.05272e+07 3.99637e+07 -520534)
(8.76118e+07 -1539.75 14455.3 3.07433e+07 3.9931e+07 -418668)
(8.75324e+07 318.614 11253.7 3.05758e+07 3.99378e+07 -504825)
(8.76275e+07 -854.057 -3226.42 3.0769e+07 3.99347e+07 -402168)
(8.76256e+07 1035.67 15324 3.07658e+07 3.99318e+07 -406484)
(8.75235e+07 3663.5 15288.9 3.05546e+07 3.9944e+07 -514279)
(8.75829e+07 1713.95 -6731.05 3.06622e+07 4.00354e+07 -437263)
(8.76919e+07 -2942.78 818.2 3.08814e+07 4.00198e+07 -316354)
(8.75231e+07 -3594.99 10497.4 3.05543e+07 3.99369e+07 -515471)
(8.75427e+07 3108.83 911.873 3.05856e+07 3.98658e+07 -486557)
(8.75775e+07 1936.55 -199.657 3.06487e+07 4.00429e+07 -441696)
(8.7522e+07 -4556.07 -999.763 3.0548e+07 3.99492e+07 -513317)
(8.75427e+07 2630.12 -93.5869 3.05859e+07 3.98659e+07 -487015)
(8.75767e+07 1915.52 -1023.51 3.0648e+07 4.00423e+07 -443167)
(8.75268e+07 -1130.24 -11470.3 3.0563e+07 3.99388e+07 -512875)
(8.76865e+07 -962.688 -12689.8 3.08757e+07 4.00268e+07 -326469)
(8.76375e+07 -2058.13 4155.81 3.07869e+07 3.99244e+07 -390551)
(8.75157e+07 973.113 4651.19 3.05419e+07 3.9939e+07 -525934)
(8.75215e+07 -608.462 -17261.6 3.05524e+07 3.99462e+07 -517761)
(8.76203e+07 -885.312 -9867.84 3.07543e+07 3.99348e+07 -409663)
(8.75158e+07 1739.92 -13193.2 3.05493e+07 3.99329e+07 -523300)
(8.75978e+07 4897.05 -25300.6 3.07367e+07 3.9957e+07 -405586)
(8.74159e+07 -38022.4 -109228 3.06096e+07 4.00303e+07 -465897)
(8.6033e+07 -225704 -801337 3.06174e+07 3.92646e+07 -1.39624e+06)
(7.28665e+07 -349941 -4.15112e+06 2.8083e+07 3.7031e+07 -8.93311e+06)
(4.17499e+07 6971.13 -2.3998e+07 2.84952e+07 3.51909e+07 1.26043e+07)
(4.53344e+07 604045 2.41344e+07 5.50041e+07 3.0028e+07 5.60051e+06)
(8.00884e+07 449090 4.06727e+06 5.75452e+07 3.13059e+07 -1.55602e+07)
(9.39287e+07 267981 710113 6.21632e+07 3.34068e+07 -8.26329e+06)
(9.53069e+07 50729.2 88150.6 6.2325e+07 3.40155e+07 -7.56381e+06)
(9.54432e+07 -297.698 28065.1 6.23727e+07 3.40382e+07 -7.54433e+06)
(9.55249e+07 -2447.34 16113.7 6.25001e+07 3.40964e+07 -7.44661e+06)
(9.54705e+07 1184.25 10749.5 6.24047e+07 3.40094e+07 -7.52736e+06)
(9.55218e+07 2275.71 9445.66 6.24985e+07 3.41478e+07 -7.46022e+06)
(9.5518e+07 -1482.61 1799.39 6.24896e+07 3.41447e+07 -7.46511e+06)
(9.54702e+07 -1430.39 2523.46 6.24021e+07 3.402e+07 -7.53314e+06)
(9.54802e+07 1589.65 8098.73 6.2418e+07 3.40081e+07 -7.51359e+06)
(9.55371e+07 -1332.03 1184.86 6.25197e+07 3.41365e+07 -7.43165e+06)
(9.54995e+07 -1710.41 -11447.5 6.2442e+07 3.3965e+07 -7.47832e+06)
(9.55108e+07 1843.39 -117.13 6.24775e+07 3.40217e+07 -7.48224e+06)
(9.54757e+07 277.775 6420.83 6.24103e+07 3.40163e+07 -7.51948e+06)
(9.54677e+07 -459.829 -8331.82 6.23975e+07 3.40254e+07 -7.53343e+06)
(9.55093e+07 209.34 682.523 6.24761e+07 3.40217e+07 -7.4843e+06)
(9.54766e+07 128.028 6754.7 6.24107e+07 3.40155e+07 -7.51961e+06)
(9.54719e+07 1178.72 2607.42 6.2408e+07 3.40148e+07 -7.53031e+06)
(9.55327e+07 1440.2 1230.77 6.25152e+07 3.41367e+07 -7.4417e+06)
(9.55305e+07 -2734.98 -9043.42 6.25127e+07 3.41443e+07 -7.44677e+06)
(9.54828e+07 -1322.91 -9842.37 6.24199e+07 3.39684e+07 -7.51089e+06)
(9.54683e+07 2548.41 -4566.53 6.24011e+07 3.40231e+07 -7.53538e+06)
(9.55126e+07 -2015.74 -8808.84 6.24804e+07 3.41464e+07 -7.47059e+06)
(9.54788e+07 1985.91 -13643 6.24171e+07 3.39621e+07 -7.5092e+06)
(9.54968e+07 2102.28 -22990.5 6.24674e+07 3.41676e+07 -7.46807e+06)
(9.53232e+07 -52921.6 -98305.3 6.23536e+07 3.39964e+07 -7.53697e+06)
(9.39687e+07 -267808 -713142 6.22402e+07 3.33965e+07 -8.21741e+06)
(8.00917e+07 -449324 -4.06154e+06 5.7549e+07 3.13051e+07 -1.55557e+07)
(4.53323e+07 -603934 -2.41346e+07 5.49957e+07 3.0022e+07 5.59721e+06)
(4.97623e+07 935778 2.49708e+07 7.38594e+07 2.11217e+07 1.24413e+07)
(8.85176e+07 453610 4.20759e+06 7.81213e+07 2.18204e+07 -8.60591e+06)
(1.03357e+08 255261 771561 8.41392e+07 2.35446e+07 -645440)
(1.04868e+08 51909.8 98600.4 8.45233e+07 2.39992e+07 159237)
(1.05017e+08 -216.078 20483.8 8.45702e+07 2.40233e+07 178876)
(1.05077e+08 -3264.55 16471.2 8.46511e+07 2.39713e+07 249563)
(1.05054e+08 707.391 15076.7 8.46151e+07 2.3966e+07 212094)
(1.05036e+08 718.253 7667.86 8.45882e+07 2.40093e+07 182482)
(1.05057e+08 279.448 4200.8 8.46117e+07 2.39717e+07 222697)
(1.05045e+08 223.686 3822.82 8.46001e+07 2.40093e+07 192002)
(1.05047e+08 -1087.88 5668.47 8.46052e+07 2.40031e+07 197872)
(1.05054e+08 422.594 -3631.33 8.46097e+07 2.39993e+07 217402)
(1.05075e+08 3100.27 -2545.88 8.46535e+07 2.40106e+07 233930)
(1.05055e+08 433.113 4889.21 8.46216e+07 2.40944e+07 199136)
(1.05047e+08 -1775.79 -360.671 8.46056e+07 2.40104e+07 195617)
(1.05043e+08 2145.14 -1378.01 8.45959e+07 2.40144e+07 189279)
(1.05053e+08 -348.05 591.623 8.4619e+07 2.40942e+07 196171)
(1.05048e+08 -2135.65 716.422 8.46066e+07 2.40098e+07 196117)
(1.05056e+08 -794.181 382.996 8.46131e+07 2.40047e+07 214391)
(1.05042e+08 -426.078 -1318.38 8.45978e+07 2.40032e+07 191571)
(1.0505e+08 656.472 -11369.8 8.46049e+07 2.4004e+07 209062)
(1.05075e+08 798.935 -7927.81 8.46476e+07 2.40072e+07 236955)
(1.05043e+08 -725.525 -1428.59 8.46001e+07 2.40132e+07 188611)
(1.05044e+08 -1926.79 -13551 8.45968e+07 2.39727e+07 197896)
(1.05084e+08 2385.6 -14109.2 8.46623e+07 2.39669e+07 260713)
(1.05014e+08 -170.884 -17583 8.45637e+07 2.40234e+07 178954)
(1.04877e+08 -50507.5 -99413.5 8.45398e+07 2.39864e+07 173271)
(1.0338e+08 -254025 -774883 8.41746e+07 2.36182e+07 -609357)
(8.85212e+07 -456370 -4.20917e+06 7.81247e+07 2.18199e+07 -8.60176e+06)
(4.97692e+07 -935408 -2.49702e+07 7.38734e+07 2.10825e+07 1.24591e+07)
(5.26198e+07 916775 2.60021e+07 8.56378e+07 1.36244e+07 1.8487e+07)
(9.39497e+07 397144 4.42071e+06 9.09519e+07 1.38242e+07 -3.00508e+06)
(1.09648e+08 212692 859635 9.77884e+07 1.51744e+07 5.54354e+06)
(1.11309e+08 44614.5 109179 9.83804e+07 1.54688e+07 6.48976e+06)
(1.11487e+08 2910.21 20141.7 9.84491e+07 1.54639e+07 6.53085e+06)
(1.11516e+08 -2254.27 10702.3 9.84891e+07 1.55393e+07 6.5349e+06)
(1.11529e+08 -1404.08 14477.7 9.84999e+07 1.54489e+07 6.55871e+06)
(1.11499e+08 1095.09 6914.56 9.84516e+07 1.54874e+07 6.51598e+06)
(1.11519e+08 -41.497 4880.52 9.84835e+07 1.54887e+07 6.54063e+06)
(1.11512e+08 -1082.76 8733.25 9.84615e+07 1.54827e+07 6.54003e+06)
(1.11517e+08 -1037.23 4182.63 9.84767e+07 1.54516e+07 6.54472e+06)
(1.11506e+08 2104.69 632.792 9.84579e+07 1.54841e+07 6.52993e+06)
(1.11505e+08 2476.3 -1850.75 9.84613e+07 1.55338e+07 6.51966e+06)
(1.11495e+08 -729.818 542.882 9.84368e+07 1.54953e+07 6.51088e+06)
(1.11506e+08 -1085.38 252.234 9.84597e+07 1.54849e+07 6.52442e+06)
(1.11501e+08 1286.67 -1669.33 9.8449e+07 1.54861e+07 6.5193e+06)
(1.11494e+08 -211.88 351.111 9.84349e+07 1.54948e+07 6.50834e+06)
(1.11506e+08 -1673.74 1498.57 9.84606e+07 1.54845e+07 6.52477e+06)
(1.11516e+08 -824.737 -532.562 9.84668e+07 1.54823e+07 6.54966e+06)
(1.11502e+08 -102.875 -2370.54 9.84553e+07 1.5484e+07 6.52103e+06)
(1.11505e+08 1417.67 -5294.51 9.84572e+07 1.54868e+07 6.52572e+06)
(1.11516e+08 925.549 -6666.52 9.8479e+07 1.55079e+07 6.53743e+06)
(1.11503e+08 -640.122 -10902.8 9.84569e+07 1.5486e+07 6.52036e+06)
(1.11514e+08 -464.638 -13423.5 9.84754e+07 1.54853e+07 6.53551e+06)
(1.11529e+08 1220.96 -9036.55 9.85034e+07 1.55028e+07 6.55848e+06)
(1.11475e+08 -2627.17 -18153.5 9.84304e+07 1.54957e+07 6.51488e+06)
(1.11313e+08 -44712.3 -110122 9.83864e+07 1.54603e+07 6.49961e+06)
(1.09642e+08 -211305 -861451 9.77741e+07 1.5182e+07 5.54021e+06)
(9.39532e+07 -397773 -4.42691e+06 9.09543e+07 1.38236e+07 -3.00232e+06)
(5.26321e+07 -915719 -2.5996e+07 8.56702e+07 1.36194e+07 1.85092e+07)
(5.41919e+07 720716 2.69033e+07 9.27783e+07 8.50514e+06 2.19693e+07)
(9.69804e+07 313849 4.62736e+06 9.87774e+07 8.45834e+06 -90252.9)
(1.13363e+08 164931 938192 1.06185e+08 9.39033e+06 8.92756e+06)
(1.15113e+08 38081.3 121005 1.0689e+08 9.66374e+06 9.91888e+06)
(1.15311e+08 4112.61 24189.7 1.06975e+08 9.68453e+06 9.96505e+06)
(1.15312e+08 -1161.8 13937.5 1.06954e+08 9.72611e+06 9.93456e+06)
(1.15346e+08 -1927.98 10602.2 1.07009e+08 9.68852e+06 9.97915e+06)
(1.15323e+08 777.785 10334.7 1.06966e+08 9.68251e+06 9.95085e+06)
(1.15322e+08 -829.299 4864.92 1.06968e+08 9.71993e+06 9.94321e+06)
(1.15335e+08 -1437.4 694.915 1.0698e+08 9.65656e+06 9.96941e+06)
(1.15342e+08 -714.395 3561.77 1.06998e+08 9.67734e+06 9.97491e+06)
(1.15343e+08 149.532 4496.89 1.06988e+08 9.65693e+06 9.98887e+06)
(1.15326e+08 2365.16 -860.326 1.06961e+08 9.66182e+06 9.95961e+06)
(1.1532e+08 380.621 973.712 1.06956e+08 9.68919e+06 9.94778e+06)
(1.15326e+08 -1262.24 234.254 1.06969e+08 9.68086e+06 9.95441e+06)
(1.15333e+08 877.104 -1250.57 1.06976e+08 9.65713e+06 9.96594e+06)
(1.1532e+08 357.3 3.38441 1.06955e+08 9.6885e+06 9.9458e+06)
(1.15327e+08 -2077.11 857.224 1.0697e+08 9.68084e+06 9.95446e+06)
(1.15343e+08 -692.458 -971.713 1.06988e+08 9.65632e+06 9.98893e+06)
(1.15324e+08 655.827 -2412.07 1.06964e+08 9.68039e+06 9.95427e+06)
(1.15332e+08 1455.78 -9103.39 1.0697e+08 9.68177e+06 9.97161e+06)
(1.15332e+08 885.022 -6041.5 1.06979e+08 9.68671e+06 9.96043e+06)
(1.15324e+08 -239.052 -2056.66 1.06967e+08 9.68159e+06 9.9512e+06)
(1.15338e+08 362.615 -13965.2 1.06986e+08 9.69443e+06 9.97712e+06)
(1.15335e+08 213.305 -13011.2 1.06988e+08 9.6958e+06 9.969e+06)
(1.15296e+08 -4255.03 -18338.6 1.06945e+08 9.68681e+06 9.95077e+06)
(1.15133e+08 -37444.6 -126729 1.06913e+08 9.6345e+06 9.96042e+06)
(1.13351e+08 -163393 -938953 1.0617e+08 9.39547e+06 8.9076e+06)
(9.69845e+07 -313187 -4.6285e+06 9.878e+07 8.4578e+06 -86510.1)
(5.41969e+07 -720151 -2.68967e+07 9.27894e+07 8.53883e+06 2.19731e+07)
(5.50568e+07 497199 2.75651e+07 9.71449e+07 5.28999e+06 2.38296e+07)
(9.86592e+07 230885 4.79775e+06 1.03563e+08 5.16158e+06 1.2985e+06)
(1.15518e+08 122619 997359 1.11389e+08 5.84295e+06 1.06028e+07)
(1.17342e+08 30093.4 142092 1.12164e+08 6.02628e+06 1.16527e+07)
(1.17545e+08 3511.44 25626.5 1.12238e+08 6.07425e+06 1.1697e+07)
(1.17555e+08 -447.96 9318.97 1.12222e+08 6.05285e+06 1.16758e+07)
(1.17583e+08 -1337.1 10509.9 1.12266e+08 6.07323e+06 1.17102e+07)
(1.17568e+08 -675.604 10045.9 1.12242e+08 6.0429e+06 1.16879e+07)
(1.17562e+08 -128.528 865.735 1.12232e+08 6.04778e+06 1.16805e+07)
(1.17581e+08 -75.5512 4356.62 1.12266e+08 6.042e+06 1.17025e+07)
(1.17571e+08 -715.498 2958.64 1.12252e+08 6.07009e+06 1.16887e+07)
(1.17582e+08 -837.27 -2711.04 1.12264e+08 6.04274e+06 1.1708e+07)
(1.17586e+08 1342.51 4056.38 1.12267e+08 6.0251e+06 1.17154e+07)
(1.17568e+08 303.808 4668.48 1.12238e+08 6.04729e+06 1.16889e+07)
(1.1757e+08 -391.827 -3673.44 1.12244e+08 6.0422e+06 1.16905e+07)
(1.17581e+08 614.249 -868.597 1.12264e+08 6.04225e+06 1.17042e+07)
(1.17567e+08 -248.674 3539.58 1.12237e+08 6.04654e+06 1.1687e+07)
(1.1757e+08 -1301.8 -4012.16 1.12245e+08 6.04252e+06 1.16905e+07)
(1.1758e+08 -959.66 -1127.61 1.12262e+08 6.04188e+06 1.17041e+07)
(1.17578e+08 -462.369 1714.16 1.12255e+08 6.02015e+06 1.17057e+07)
(1.17582e+08 2378.52 -4956.73 1.12255e+08 6.02304e+06 1.17185e+07)
(1.17565e+08 1425.42 -5458.15 1.12239e+08 6.07711e+06 1.16798e+07)
(1.17568e+08 -717.137 -9931.91 1.12243e+08 6.04291e+06 1.16871e+07)
(1.17575e+08 1004.77 -13885.6 1.12254e+08 6.04724e+06 1.16993e+07)
(1.17576e+08 -659.274 -8597.96 1.12258e+08 6.05703e+06 1.17025e+07)
(1.17547e+08 -4419.26 -23442 1.12238e+08 6.02363e+06 1.17025e+07)
(1.17363e+08 -28018.1 -143399 1.12191e+08 6.02316e+06 1.16917e+07)
(1.15518e+08 -121712 -995068 1.11386e+08 5.84521e+06 1.06052e+07)
(9.86625e+07 -230751 -4.79913e+06 1.03564e+08 5.16066e+06 1.30293e+06)
(5.50563e+07 -497760 -2.75624e+07 9.71385e+07 5.29602e+06 2.38246e+07)
(5.55659e+07 315765 2.80027e+07 9.98574e+07 3.30777e+06 2.48737e+07)
(9.96341e+07 160262 4.93309e+06 1.06506e+08 3.17756e+06 2.01003e+06)
(1.16806e+08 88796.6 1.04257e+06 1.14623e+08 3.67532e+06 1.14997e+07)
(1.18692e+08 21555.6 148321 1.1547e+08 3.78457e+06 1.25981e+07)
(1.18901e+08 2814.88 26765.9 1.15536e+08 3.80394e+06 1.2642e+07)
(1.18921e+08 564.956 12460.7 1.15539e+08 3.8055e+06 1.26285e+07)
(1.18924e+08 -967.527 9648.88 1.15543e+08 3.82889e+06 1.2626e+07)
(1.1893e+08 -1017.66 6633.07 1.15551e+08 3.79878e+06 1.26344e+07)
(1.18927e+08 785.121 4508.83 1.15546e+08 3.80238e+06 1.26311e+07)
(1.18931e+08 -107.514 4000.79 1.15557e+08 3.82419e+06 1.2633e+07)
(1.18929e+08 -947.867 2462.93 1.15548e+08 3.80115e+06 1.26343e+07)
(1.18939e+08 734.227 -2491.35 1.15566e+08 3.80507e+06 1.26462e+07)
(1.18943e+08 477.917 1108.74 1.15572e+08 3.82646e+06 1.26498e+07)
(1.18931e+08 -1100.58 4613.48 1.15551e+08 3.80148e+06 1.26377e+07)
(1.18931e+08 547.503 -66.7687 1.15552e+08 3.79828e+06 1.26369e+07)
(1.18933e+08 461.766 -610.157 1.15556e+08 3.82386e+06 1.26353e+07)
(1.1893e+08 -1014.41 -315.617 1.1555e+08 3.80071e+06 1.26354e+07)
(1.18932e+08 -608.112 -948.146 1.15553e+08 3.79881e+06 1.26374e+07)
(1.18936e+08 -243.068 -4946.24 1.15561e+08 3.80434e+06 1.26438e+07)
(1.18944e+08 -657.492 -5806.23 1.15573e+08 3.79773e+06 1.26548e+07)
(1.18948e+08 1181.85 -709.206 1.15579e+08 3.78007e+06 1.26603e+07)
(1.18925e+08 1081.83 -1091.26 1.15541e+08 3.80513e+06 1.26301e+07)
(1.18929e+08 407.248 -6453.21 1.15551e+08 3.79915e+06 1.26338e+07)
(1.18927e+08 1820.32 -13573.1 1.15549e+08 3.82763e+06 1.26291e+07)
(1.18931e+08 -829.335 -15632.6 1.15556e+08 3.83145e+06 1.26395e+07)
(1.18912e+08 -4598.18 -21618.2 1.1556e+08 3.79978e+06 1.26526e+07)
(1.18699e+08 -20824 -144921 1.15479e+08 3.78765e+06 1.26103e+07)
(1.16807e+08 -88251.4 -1.04346e+06 1.14622e+08 3.67605e+06 1.15055e+07)
(9.96444e+07 -160082 -4.9352e+06 1.06515e+08 3.1771e+06 2.03133e+06)
(5.5565e+07 -316388 -2.80013e+07 9.98525e+07 3.31251e+06 2.48683e+07)
(5.58845e+07 190452 2.82738e+07 1.01559e+08 2.07665e+06 2.5501e+07)
(1.00228e+08 105390 5.02434e+06 1.08323e+08 1.97309e+06 2.42271e+06)
(1.17608e+08 62946.5 1.07611e+06 1.16656e+08 2.2957e+06 1.20462e+07)
(1.19534e+08 15913.4 155741 1.17554e+08 2.39004e+06 1.31658e+07)
(1.19745e+08 2241.87 27182.5 1.17621e+08 2.4049e+06 1.31998e+07)
(1.19774e+08 455.032 12450.7 1.17632e+08 2.40554e+06 1.3201e+07)
(1.19774e+08 -638.594 9167.93 1.17627e+08 2.40767e+06 1.31969e+07)
(1.1978e+08 -574.827 6595.06 1.17639e+08 2.40177e+06 1.32035e+07)
(1.19779e+08 437.958 4742.14 1.17637e+08 2.40369e+06 1.32026e+07)
(1.19784e+08 -84.892 3989.66 1.17639e+08 2.4054e+06 1.32139e+07)
(1.19781e+08 -152.152 -1478.11 1.17639e+08 2.40416e+06 1.32059e+07)
(1.1979e+08 1167.28 1085.6 1.17652e+08 2.40548e+06 1.32177e+07)
(1.19781e+08 -85.7243 4923.79 1.17637e+08 2.42844e+06 1.32043e+07)
(1.19782e+08 -1588.83 951.675 1.1764e+08 2.4036e+06 1.32074e+07)
(1.19781e+08 213.164 34.6363 1.17637e+08 2.40139e+06 1.32057e+07)
(1.19785e+08 478.552 -433.812 1.1764e+08 2.40508e+06 1.3215e+07)
(1.19781e+08 -592.803 -594.809 1.17639e+08 2.40288e+06 1.3205e+07)
(1.19782e+08 -515.115 -4600.39 1.1764e+08 2.40164e+06 1.32069e+07)
(1.198e+08 483.154 -1551.95 1.17664e+08 2.38714e+06 1.32389e+07)
(1.19783e+08 889.225 -2586.33 1.17643e+08 2.4237e+06 1.32086e+07)
(1.19791e+08 205.074 -3657.29 1.17659e+08 2.42569e+06 1.32167e+07)
(1.19779e+08 -447.935 -656.185 1.17634e+08 2.40619e+06 1.32039e+07)
(1.1978e+08 255.055 -6547.2 1.17639e+08 2.40224e+06 1.32035e+07)
(1.19776e+08 1807.92 -9583.43 1.1763e+08 2.40656e+06 1.31997e+07)
(1.19771e+08 189.577 -12123 1.17626e+08 2.43124e+06 1.31984e+07)
(1.19751e+08 -4193.09 -30237.5 1.17632e+08 2.42464e+06 1.3207e+07)
(1.19547e+08 -16437.1 -155827 1.17572e+08 2.37221e+06 1.31882e+07)
(1.1761e+08 -62445 -1.07307e+06 1.16657e+08 2.29554e+06 1.20525e+07)
(1.00229e+08 -104992 -5.0256e+06 1.08324e+08 1.97222e+06 2.4236e+06)
(5.58841e+07 -190869 -2.82733e+07 1.01557e+08 2.08015e+06 2.54978e+07)
(5.60893e+07 111576 2.84352e+07 1.02627e+08 1.3035e+06 2.58914e+07)
(1.006e+08 67045 5.08393e+06 1.09445e+08 1.23026e+06 2.68002e+06)
(1.18116e+08 43614.7 1.10018e+06 1.17942e+08 1.44422e+06 1.23931e+07)
(1.20064e+08 11435.2 161265 1.1887e+08 1.51085e+06 1.35249e+07)
(1.20285e+08 1714.24 28467 1.18943e+08 1.52257e+06 1.35701e+07)
(1.20311e+08 499.173 12564.6 1.18952e+08 1.52223e+06 1.35622e+07)
(1.20314e+08 -387.42 8856.56 1.1895e+08 1.52383e+06 1.35611e+07)
(1.20317e+08 -359.555 6372.49 1.18957e+08 1.52018e+06 1.35634e+07)
(1.20317e+08 125.542 4760.27 1.18956e+08 1.52116e+06 1.35631e+07)
(1.20321e+08 -71.6887 3906.7 1.18959e+08 1.52315e+06 1.35734e+07)
(1.20319e+08 679.928 2010.27 1.18958e+08 1.5218e+06 1.35671e+07)
(1.20319e+08 663.044 1306.63 1.18957e+08 1.54349e+06 1.35669e+07)
(1.20316e+08 -687.63 1464.75 1.1895e+08 1.52535e+06 1.35647e+07)
(1.20319e+08 -1425.91 664.098 1.18959e+08 1.52153e+06 1.35677e+07)
(1.20324e+08 29.4829 -64.8304 1.18965e+08 1.50181e+06 1.35751e+07)
(1.20318e+08 801.297 -287.429 1.18956e+08 1.5224e+06 1.35648e+07)
(1.20318e+08 -426.669 -666.493 1.18958e+08 1.52101e+06 1.35652e+07)
(1.20318e+08 647.636 -4861.43 1.18956e+08 1.51999e+06 1.35661e+07)
(1.20328e+08 -46.1955 -1514.67 1.18975e+08 1.54338e+06 1.35781e+07)
(1.20323e+08 112.396 1077.28 1.18961e+08 1.5039e+06 1.35758e+07)
(1.20316e+08 631.39 -3353.07 1.18952e+08 1.54416e+06 1.3563e+07)
(1.20317e+08 -784.94 -4013.46 1.18955e+08 1.52259e+06 1.35659e+07)
(1.20317e+08 169.962 -6457.89 1.18957e+08 1.52059e+06 1.35641e+07)
(1.20315e+08 1005.09 -9113.81 1.18952e+08 1.52322e+06 1.35627e+07)
(1.20308e+08 4.38573 -12213.2 1.18943e+08 1.52608e+06 1.35608e+07)
(1.20283e+08 -2051.09 -31455 1.18941e+08 1.52209e+06 1.35654e+07)
(1.20073e+08 -11967.8 -161410 1.18882e+08 1.53169e+06 1.35398e+07)
(1.18118e+08 -44050.9 -1.09692e+06 1.17943e+08 1.44352e+06 1.23987e+07)
(1.00599e+08 -66401.6 -5.08507e+06 1.09446e+08 1.22996e+06 2.67863e+06)
(5.60894e+07 -111818 -2.84356e+07 1.02629e+08 1.30606e+06 2.58896e+07)
(5.62253e+07 64587.5 2.85291e+07 1.03309e+08 793985 2.61442e+07)
(1.00833e+08 42013.5 5.12113e+06 1.10137e+08 765419 2.84296e+06)
(1.18434e+08 29483 1.11702e+06 1.18746e+08 904074 1.26125e+07)
(1.20398e+08 7680.79 165216 1.19696e+08 950482 1.37532e+07)
(1.20623e+08 1235.19 28508.1 1.19777e+08 940410 1.37967e+07)
(1.2065e+08 837.275 12807.3 1.19782e+08 958561 1.37918e+07)
(1.20654e+08 -198.202 8653.87 1.19782e+08 959306 1.37917e+07)
(1.20655e+08 -225.634 6192.94 1.19786e+08 957557 1.37922e+07)
(1.20655e+08 37.7487 4539.14 1.19785e+08 958175 1.3792e+07)
(1.20655e+08 -82.3617 3713.73 1.19785e+08 959286 1.37914e+07)
(1.20657e+08 216.961 2295.6 1.19786e+08 958488 1.37962e+07)
(1.20654e+08 415.445 1553.8 1.19777e+08 960564 1.3794e+07)
(1.20656e+08 -175.293 1410.27 1.19783e+08 960970 1.37961e+07)
(1.20658e+08 -561.333 -3106.25 1.19788e+08 958651 1.37969e+07)
(1.20667e+08 54.5421 -79.1222 1.19802e+08 957381 1.38082e+07)
(1.20657e+08 234.679 3325.53 1.19787e+08 959494 1.37945e+07)
(1.20657e+08 -739.495 -754.537 1.19787e+08 958416 1.37945e+07)
(1.20662e+08 1017.85 -1429.73 1.19793e+08 939815 1.38028e+07)
(1.20657e+08 688.399 -4894.31 1.19785e+08 980850 1.37949e+07)
(1.20666e+08 -1059.92 -2173.16 1.198e+08 958817 1.38098e+07)
(1.20658e+08 18.0361 229.713 1.19785e+08 943973 1.38009e+07)
(1.20656e+08 25.3702 -4163.06 1.19784e+08 958499 1.37951e+07)
(1.20656e+08 171.476 -6352.83 1.19786e+08 957915 1.37932e+07)
(1.20654e+08 524.82 -8762.17 1.19783e+08 959021 1.3793e+07)
(1.20649e+08 -142.432 -12223.6 1.19778e+08 960665 1.3793e+07)
(1.20621e+08 -1508.2 -28845.9 1.19771e+08 958184 1.37959e+07)
(1.20401e+08 -8643.53 -165744 1.19696e+08 953199 1.37634e+07)
(1.18435e+08 -29696.9 -1.11715e+06 1.18744e+08 903153 1.26166e+07)
(1.00832e+08 -40739.1 -5.12213e+06 1.10136e+08 765502 2.84162e+06)
(5.62216e+07 -64448.3 -2.85303e+07 1.03302e+08 815405 2.61341e+07)
(5.63127e+07 37064.8 2.85806e+07 1.03736e+08 500780 2.63013e+07)
(1.00977e+08 24879.3 5.14881e+06 1.10559e+08 470089 2.94311e+06)
(1.18632e+08 19298.6 1.12845e+06 1.19244e+08 557803 1.27484e+07)
(1.20605e+08 5724.68 164765 1.2021e+08 589160 1.38963e+07)
(1.20838e+08 825.847 28909.1 1.20301e+08 594663 1.39456e+07)
(1.20861e+08 182.513 16307.7 1.20297e+08 594216 1.39349e+07)
(1.20865e+08 -41.352 8547.83 1.20299e+08 594842 1.39351e+07)
(1.20866e+08 -129.293 6080.4 1.20301e+08 594066 1.39353e+07)
(1.20866e+08 89.9583 4509 1.20301e+08 594535 1.39351e+07)
(1.20866e+08 -125.56 3638.85 1.20301e+08 595835 1.39353e+07)
(1.20868e+08 -425.2 2416.25 1.20301e+08 594292 1.39389e+07)
(1.20872e+08 337.438 1732.58 1.20305e+08 578459 1.39463e+07)
(1.20868e+08 395.86 1320.26 1.20301e+08 595985 1.39403e+07)
(1.20869e+08 106.923 117.144 1.20303e+08 594960 1.39399e+07)
(1.20869e+08 73.0412 13.6484 1.20303e+08 612672 1.39406e+07)
(1.20868e+08 -236.102 79.5414 1.20302e+08 595757 1.39389e+07)
(1.20868e+08 -122.41 -4359.42 1.20303e+08 595075 1.39386e+07)
(1.20877e+08 525.57 -1283.29 1.20318e+08 594458 1.39508e+07)
(1.20866e+08 500.071 2001.66 1.20296e+08 598270 1.39375e+07)
(1.20869e+08 -234.495 -5613.3 1.20302e+08 613222 1.39422e+07)
(1.20877e+08 -644.4 -3138.55 1.20315e+08 597081 1.39519e+07)
(1.20866e+08 -329.725 -874.298 1.20298e+08 594224 1.39379e+07)
(1.20867e+08 254.96 -6248.7 1.20302e+08 594540 1.39366e+07)
(1.20866e+08 232.876 -8612.05 1.203e+08 594608 1.39365e+07)
(1.20861e+08 -313.932 -12310 1.20297e+08 595274 1.3937e+07)
(1.20831e+08 -1262.96 -32753.8 1.20286e+08 593414 1.39387e+07)
(1.20617e+08 -6207.31 -168857 1.20224e+08 573266 1.39174e+07)
(1.18638e+08 -19289.2 -1.12522e+06 1.19251e+08 539399 1.27604e+07)
(1.00977e+08 -24044.2 -5.14456e+06 1.10558e+08 470178 2.94364e+06)
(5.63059e+07 -36684.8 -2.85848e+07 1.0372e+08 500840 2.62858e+07)
(5.63585e+07 20776.9 2.86152e+07 1.03973e+08 316435 2.63799e+07)
(1.01065e+08 13802.5 5.15674e+06 1.10811e+08 277711 3.00504e+06)
(1.18751e+08 11960.5 1.13586e+06 1.19544e+08 330715 1.28308e+07)
(1.20731e+08 4096.94 170405 1.20522e+08 350791 1.3983e+07)
(1.20962e+08 272.334 29632.9 1.20604e+08 371553 1.40326e+07)
(1.20988e+08 -209.482 12826.4 1.20608e+08 353415 1.40209e+07)
(1.20993e+08 169.369 8527.17 1.20613e+08 354063 1.40219e+07)
(1.20994e+08 -64.5923 6007.26 1.20614e+08 353715 1.40219e+07)
(1.20994e+08 24.437 4581.94 1.20614e+08 354059 1.40218e+07)
(1.20998e+08 -278.555 3646 1.20617e+08 355105 1.40304e+07)
(1.20995e+08 101.245 -1066.09 1.20612e+08 353541 1.40247e+07)
(1.21005e+08 414.699 1907.79 1.2063e+08 354995 1.40393e+07)
(1.20996e+08 -87.3605 4721.42 1.20616e+08 354957 1.4027e+07)
(1.20996e+08 -512.106 56.9343 1.20616e+08 354406 1.40264e+07)
(1.20998e+08 -36.1204 136.674 1.20616e+08 337290 1.40307e+07)
(1.21e+08 424.811 148.076 1.20618e+08 354786 1.40342e+07)
(1.21e+08 635.599 -1023.8 1.20619e+08 354798 1.40332e+07)
(1.20998e+08 322.599 -1145.34 1.20619e+08 372530 1.40282e+07)
(1.20995e+08 -841.603 -1388.85 1.20613e+08 356434 1.40266e+07)
(1.20998e+08 506.07 -2220.94 1.20616e+08 337478 1.40318e+07)
(1.20999e+08 -351.415 -3177.26 1.20619e+08 374084 1.40308e+07)
(1.20999e+08 -817.085 -4407.22 1.2062e+08 336106 1.40314e+07)
(1.20995e+08 550.397 -6217.19 1.20615e+08 354394 1.40242e+07)
(1.20993e+08 54.5127 -8617.54 1.20613e+08 353663 1.40231e+07)
(1.2099e+08 -635.412 -12391.2 1.20612e+08 354053 1.40237e+07)
(1.20963e+08 83.5547 -32996 1.20608e+08 335250 1.40319e+07)
(1.20743e+08 -3031.67 -174605 1.20538e+08 369653 1.40019e+07)
(1.18763e+08 -12860 -1.13274e+06 1.19562e+08 330171 1.28478e+07)
(1.01065e+08 -14242.5 -5.15421e+06 1.10811e+08 277162 3.00612e+06)
(5.63572e+07 -20729.4 -2.86137e+07 1.03973e+08 297134 2.63752e+07)
(5.63879e+07 10709.2 2.86324e+07 1.04116e+08 136725 2.6432e+07)
(1.01114e+08 7837.76 5.16391e+06 1.10953e+08 145656 3.03905e+06)
(1.18819e+08 6431.43 1.1403e+06 1.19714e+08 173902 1.2877e+07)
(1.20806e+08 1450.11 172376 1.20702e+08 184893 1.40403e+07)
(1.2103e+08 -282.072 29106.5 1.20776e+08 168705 1.4073e+07)
(1.21065e+08 673.484 12998.1 1.20795e+08 168852 1.40764e+07)
(1.21066e+08 566.864 8530.42 1.20791e+08 186646 1.40708e+07)
(1.21066e+08 -22.3196 5960.23 1.20792e+08 186548 1.40706e+07)
(1.21067e+08 -58.9154 4434.12 1.20792e+08 186765 1.40706e+07)
(1.21067e+08 -629.018 3419 1.20791e+08 186701 1.4071e+07)
(1.21072e+08 698.694 2545.07 1.20798e+08 169052 1.40796e+07)
(1.21072e+08 717.678 2080.07 1.20797e+08 205286 1.40798e+07)
(1.21069e+08 -606.368 1250.35 1.20793e+08 187663 1.40757e+07)
(1.21069e+08 -97.7196 -3443.79 1.20794e+08 187088 1.40753e+07)
(1.21077e+08 -184.308 -42.3007 1.20805e+08 187217 1.40864e+07)
(1.21068e+08 7.79617 3557.6 1.20791e+08 186085 1.40737e+07)
(1.21068e+08 434.554 -785.331 1.20793e+08 187143 1.40732e+07)
(1.21067e+08 153.032 -873.03 1.20789e+08 187892 1.40726e+07)
(1.21072e+08 -100.065 -4773.36 1.20795e+08 187527 1.40839e+07)
(1.21077e+08 244.175 -2139.95 1.20806e+08 187578 1.40872e+07)
(1.21071e+08 -241.78 -3375.57 1.20793e+08 188458 1.40843e+07)
(1.21076e+08 -389.094 -4532.66 1.20806e+08 186291 1.40857e+07)
(1.21071e+08 -17.0986 -3062.18 1.20796e+08 187043 1.40813e+07)
(1.21065e+08 37.7803 -8700.84 1.2079e+08 185944 1.40713e+07)
(1.21062e+08 5.75883 -15862.9 1.2079e+08 186597 1.40724e+07)
(1.2104e+08 525.649 -29611.3 1.20795e+08 185678 1.40864e+07)
(1.20804e+08 -1255.26 -168666 1.20698e+08 203679 1.40393e+07)
(1.18823e+08 -7599.75 -1.14082e+06 1.1972e+08 191617 1.28846e+07)
(1.01113e+08 -7985.42 -5.16478e+06 1.1095e+08 144282 3.03798e+06)
(5.6386e+07 -10700 -2.86335e+07 1.04115e+08 156975 2.64252e+07)
(5.64057e+07 3319.46 2.8637e+07 1.04193e+08 49098 2.64641e+07)
(1.01136e+08 2142.33 5.17224e+06 1.11016e+08 45113.5 3.05305e+06)
(1.18849e+08 1952.6 1.14222e+06 1.1979e+08 54107.1 1.28974e+07)
(1.20834e+08 142.181 168652 1.20778e+08 57081.1 1.40533e+07)
(1.21074e+08 239.286 25790.3 1.20878e+08 40916 1.41088e+07)
(1.21104e+08 479.127 16463 1.20886e+08 58109.6 1.41051e+07)
(1.21098e+08 -21.3179 11972.7 1.20872e+08 57948.9 1.40925e+07)
(1.21099e+08 -5.3002 5945.03 1.20872e+08 57969.6 1.40924e+07)
(1.21099e+08 -26.9606 4353.28 1.20872e+08 58073.6 1.40923e+07)
(1.211e+08 -14.587 -85.8016 1.20872e+08 57902 1.40927e+07)
(1.2111e+08 217.636 2664.33 1.20888e+08 58197.6 1.41078e+07)
(1.211e+08 -23.2051 5673.8 1.20868e+08 58755.1 1.40964e+07)
(1.21105e+08 -164.455 1221.83 1.20876e+08 58302.2 1.41053e+07)
(1.21102e+08 432.492 -143.03 1.20874e+08 58309.3 1.40969e+07)
(1.21103e+08 -302.557 -200.456 1.20873e+08 75831.7 1.41001e+07)
(1.21099e+08 -425.952 209.306 1.20869e+08 57342 1.40941e+07)
(1.21104e+08 349.985 -578.938 1.20876e+08 58550.3 1.4103e+07)
(1.211e+08 61.4856 -1021.98 1.20871e+08 58632 1.40956e+07)
(1.21101e+08 602.735 -1429.51 1.20873e+08 57615.9 1.40962e+07)
(1.21104e+08 94.3265 -2030.67 1.20877e+08 76348.1 1.41014e+07)
(1.21101e+08 -302.17 -3358.68 1.20872e+08 58662.5 1.4098e+07)
(1.21102e+08 -160.34 -4622.05 1.20873e+08 75451.3 1.40989e+07)
(1.211e+08 -584.172 -6197.39 1.20873e+08 57849.3 1.40949e+07)
(1.21097e+08 52.312 -8572.49 1.20868e+08 57076.2 1.40923e+07)
(1.21095e+08 645.278 -12359.8 1.20871e+08 57903.6 1.40944e+07)
(1.21066e+08 93.0427 -29621.8 1.20862e+08 75244.1 1.40994e+07)
(1.20832e+08 -764.056 -172593 1.2077e+08 57857.5 1.40561e+07)
(1.18849e+08 -2965.01 -1.14332e+06 1.19788e+08 54666.3 1.28998e+07)