/*--------------------------------*- C++ -*----------------------------------*\
| =========                 |                                                 |
| \\      /  F ield         | OpenFOAM: The Open Source CFD Toolbox           |
|  \\    /   O peration     | Version:  2106                                  |
|   \\  /    A nd           | Website:  www.openfoam.com                      |
|    \\/     M anipulation  |                                                 |
\*---------------------------------------------------------------------------*/
FoamFile
{
    version     2.0;
    format      ascii;
    arch        "LSB;label=32;scalar=64";
    class       volTensorField;
    location    "297";
    object      testEpsilon;
}
// * * * * * * * * * * * * * * * * * * * * * * * * * * * * * * * * * * * * * //

dimensions      [0 0 0 0 0 0 0];

internalField   nonuniform List<tensor> 
9000
(
(-0.0856125 0.00384197 -0.105545 -0.00437293 -0.147167 -0.257649 0.20195 0.380534 -0.0252256)
(-0.0167837 0.00368478 -0.00286004 -0.00261007 -0.156509 -0.270488 0.0216661 0.400801 -0.0696668)
(-0.00193159 0.00248449 0.00204384 -0.00181261 -0.166425 -0.287187 0.00311027 0.425559 -0.0594235)
(-0.00032233 0.000469349 0.000326535 -0.000367745 -0.168045 -0.290976 0.000584125 0.431134 -0.0572856)
(-5.60083e-05 -3.64399e-05 -2.64313e-05 2.09937e-05 -0.168129 -0.291093 0.000106483 0.431306 -0.0572931)
(-4.35051e-06 -2.09382e-05 -1.32438e-05 1.73316e-05 -0.167955 -0.290335 4.43555e-05 0.430135 -0.0575483)
(-1.50312e-06 -6.68479e-07 1.26815e-07 7.38743e-07 -0.168081 -0.290897 4.34116e-05 0.431026 -0.0574295)
(-7.79103e-08 -3.07149e-05 -1.86203e-05 1.90041e-05 -0.167949 -0.290328 2.68806e-05 0.430132 -0.057545)
(-9.2822e-07 3.92532e-05 2.48723e-05 -2.65072e-05 -0.167948 -0.290321 2.8106e-05 0.430121 -0.0575503)
(-5.99904e-06 1.77099e-05 9.0838e-06 -4.54546e-06 -0.168118 -0.290999 -3.12462e-05 0.431168 -0.0573412)
(2.46647e-06 -6.1553e-05 -4.20653e-05 4.95215e-05 -0.168006 -0.290573 -5.55094e-05 0.430514 -0.0574543)
(7.29363e-06 1.70252e-05 1.30872e-05 -1.80772e-05 -0.167832 -0.289883 5.9471e-05 0.429454 -0.0576758)
(-4.1095e-06 5.73242e-05 3.89869e-05 -4.68695e-05 -0.168108 -0.290951 6.85819e-05 0.4311 -0.0573669)
(-3.54763e-06 -1.08605e-05 -9.55674e-06 1.25607e-05 -0.168125 -0.290954 -4.85141e-05 0.431119 -0.0573558)
(3.25257e-06 7.86231e-06 5.3842e-06 -5.89455e-06 -0.168021 -0.290628 2.95368e-06 0.43059 -0.0574301)
(-2.88059e-06 1.17535e-05 9.64061e-06 -1.422e-05 -0.168129 -0.291032 4.95121e-05 0.431216 -0.0573237)
(-1.95291e-06 -1.98279e-05 -1.53769e-05 2.02972e-05 -0.168125 -0.290954 -5.75855e-05 0.431119 -0.0573576)
(3.10446e-07 8.39176e-07 1.11343e-06 5.31599e-07 -0.16802 -0.290624 -4.89994e-06 0.430585 -0.057433)
(-1.9188e-06 -4.44836e-05 -2.79323e-05 3.11907e-05 -0.16811 -0.290967 -1.65236e-05 0.431123 -0.0573563)
(4.65731e-06 -4.09007e-05 -2.64152e-05 2.8244e-05 -0.167836 -0.289906 -2.02436e-05 0.429483 -0.0576574)
(2.79187e-06 5.85598e-05 3.94158e-05 -4.70227e-05 -0.167932 -0.290267 4.50076e-05 0.43005 -0.0575822)
(-5.51567e-06 4.52221e-05 2.88367e-05 -3.23105e-05 -0.168116 -0.290982 -8.00134e-06 0.431138 -0.0573574)
(-3.47697e-06 -3.47951e-05 -2.20003e-05 2.3007e-05 -0.168119 -0.291006 -3.39709e-05 0.431178 -0.0573437)
(-1.58059e-09 -7.55633e-06 -4.54527e-06 5.87191e-06 -0.167957 -0.290349 -4.14484e-05 0.430158 -0.057539)
(-7.98205e-06 1.17849e-05 6.56466e-06 -8.53022e-06 -0.168104 -0.290942 -4.87494e-05 0.431083 -0.0573759)
(-5.47349e-05 -2.2532e-05 -1.34483e-05 2.61119e-05 -0.167967 -0.290443 -0.000168888 0.4303 -0.05748)
(-0.000316016 -0.000441613 -0.000308622 0.000349647 -0.16792 -0.290507 -0.000579653 0.43042 -0.0574153)
(-0.00193211 -0.00245803 -0.00202512 0.00178655 -0.166423 -0.287109 -0.00305391 0.42546 -0.0594449)
(-0.0167866 -0.00367699 0.00286505 0.00260421 -0.156508 -0.270484 -0.0216672 0.400796 -0.0696662)
(-0.0856123 -0.00384374 0.105548 0.00437459 -0.147167 -0.257639 -0.201956 0.380516 -0.025229)
(-0.0724201 0.00189576 -0.10326 -0.00192281 -0.0981093 -0.0791234 0.196298 0.215577 -0.128919)
(-0.0164075 0.00216167 -0.00426454 -0.000798072 -0.103222 -0.0826472 0.0203542 0.22622 -0.174978)
(-0.00180473 0.00153454 0.000978839 -0.000669189 -0.109263 -0.0876773 0.00212514 0.240227 -0.171289)
(-0.000207655 0.000317193 0.000119672 -0.000175159 -0.110434 -0.0888766 0.000343929 0.243748 -0.170601)
(-2.79959e-05 -1.58813e-05 1.79852e-06 3.59326e-06 -0.110459 -0.088916 6.04703e-05 0.243855 -0.170645)
(-4.82107e-06 -1.52401e-05 -2.09914e-06 9.27049e-06 -0.110244 -0.0887364 5.81424e-05 0.243549 -0.170652)
(-2.14814e-06 8.09567e-07 1.3573e-06 4.25698e-07 -0.110413 -0.0888512 4.22732e-05 0.24369 -0.170662)
(-1.53544e-06 -9.78459e-06 6.0773e-06 6.47341e-06 -0.110222 -0.0887367 -1.85861e-05 0.243564 -0.170647)
(-7.95333e-07 1.47631e-05 -5.75606e-06 -1.07478e-05 -0.110224 -0.0887359 6.51673e-05 0.243552 -0.170651)
(-8.73981e-07 1.08597e-05 -1.99302e-06 3.34372e-06 -0.110435 -0.0888843 6.12682e-05 0.243747 -0.170662)
(-3.08314e-07 -1.94391e-05 9.60485e-06 2.60841e-05 -0.110341 -0.0887965 -3.57011e-05 0.244014 -0.170627)
(-9.68883e-08 2.94978e-07 -3.90679e-06 -1.17042e-05 -0.110127 -0.0886394 7.07895e-06 0.243796 -0.170604)
(-7.70962e-07 1.32377e-05 -8.6822e-06 -2.71754e-05 -0.110435 -0.0888574 4.93807e-05 0.243693 -0.170663)
(-2.98912e-07 3.89011e-06 4.17402e-06 8.1628e-06 -0.110412 -0.0888556 -6.38694e-07 0.243415 -0.170645)
(1.58244e-07 8.64076e-06 -4.55804e-07 -1.13276e-06 -0.110356 -0.0888156 -3.18265e-07 0.244062 -0.170625)
(-4.11072e-07 -5.77778e-06 -2.78564e-06 -1.18861e-05 -0.110445 -0.0888961 -1.09044e-06 0.243779 -0.170657)
(-9.4005e-08 -2.96739e-06 3.09775e-06 1.31644e-05 -0.110411 -0.088856 -3.46058e-06 0.243416 -0.170646)
(2.34606e-08 3.87865e-06 -1.0439e-06 3.54783e-06 -0.110356 -0.0888139 -2.92425e-06 0.244058 -0.170627)
(-5.50394e-07 -1.81444e-05 5.62114e-06 1.37624e-05 -0.110425 -0.0888721 -5.00913e-05 0.243715 -0.170666)
(-6.80755e-07 -1.57654e-05 6.14487e-06 1.2033e-05 -0.110128 -0.088649 -5.53432e-05 0.243833 -0.170614)
(-7.06777e-07 1.62334e-05 -1.03207e-05 -2.42128e-05 -0.110206 -0.0887133 2.64328e-05 0.2435 -0.170643)
(-8.45766e-07 1.87923e-05 -6.08713e-06 -1.50196e-05 -0.110445 -0.0888731 2.41198e-05 0.243717 -0.17067)
(-1.11902e-06 -1.13244e-05 6.52422e-06 8.9654e-06 -0.110436 -0.0888873 -7.34474e-05 0.243759 -0.170665)
(-1.65223e-06 -6.3313e-06 -1.29108e-06 2.89895e-06 -0.110236 -0.0887482 -3.69665e-05 0.243575 -0.170648)
(-5.4283e-06 1.0133e-05 2.04549e-06 -3.38738e-06 -0.110435 -0.0888613 -5.31955e-05 0.243681 -0.170669)
(-2.84135e-05 -2.10069e-06 7.30877e-06 2.10866e-05 -0.110254 -0.0887736 -0.000105399 0.243687 -0.170623)
(-0.000207429 -0.000313648 -0.000125572 0.000166235 -0.110326 -0.0887724 -0.000297906 0.24397 -0.170566)
(-0.0018048 -0.00152706 -0.000982162 0.000652005 -0.109228 -0.0876359 -0.00212462 0.239865 -0.171286)
(-0.0164077 -0.00215352 0.00426418 0.000796802 -0.103221 -0.0826447 -0.0203581 0.226214 -0.174976)
(-0.0724193 -0.0018981 0.103262 0.00192512 -0.0981134 -0.0791235 -0.196302 0.215559 -0.128918)
(-0.0763215 -0.0010767 -0.104122 0.00341858 -0.0575768 -0.00939103 0.197691 0.125809 -0.153346)
(-0.016533 0.00145409 -0.00457082 0.00028703 -0.060233 -0.0111356 0.0203396 0.132509 -0.201948)
(-0.00180701 0.00104198 0.000797949 -3.0223e-06 -0.0633844 -0.0116374 0.00195516 0.141156 -0.199906)
(-0.000187774 0.000230167 7.88074e-05 -3.34904e-05 -0.0641232 -0.0118037 0.000262952 0.143682 -0.199603)
(-1.91224e-05 1.57216e-06 1.62246e-06 -2.72634e-06 -0.0641263 -0.0118147 0.000107186 0.143781 -0.199661)
(-4.98402e-06 -1.17213e-05 -2.82763e-07 2.23299e-06 -0.0640235 -0.0118262 6.27555e-05 0.144018 -0.199615)
(-2.06254e-06 3.82505e-06 4.95236e-08 7.66283e-07 -0.0641001 -0.0118033 4.16264e-05 0.143658 -0.199663)
(-2.3126e-06 7.06544e-06 4.44437e-06 1.75748e-06 -0.0640181 -0.0118435 3.21765e-05 0.144234 -0.199633)
(-1.55416e-06 -3.39885e-06 -4.63458e-06 -2.34922e-06 -0.064027 -0.0118359 1.16108e-05 0.144215 -0.199634)
(1.36733e-06 -5.80451e-06 -3.05215e-06 2.58868e-07 -0.0641011 -0.0118059 1.28356e-05 0.143702 -0.199671)
(-5.43102e-07 3.4162e-09 6.90449e-06 6.15967e-06 -0.0640917 -0.0118235 2.44943e-05 0.143673 -0.199654)
(-3.35827e-06 -1.69192e-06 9.09993e-07 -3.47236e-06 -0.0640075 -0.0118543 3.6837e-06 0.144201 -0.199608)
(-1.36112e-07 4.60968e-07 -4.24525e-06 -7.09222e-06 -0.064082 -0.0117949 -4.01369e-05 0.143477 -0.199623)
(1.66091e-06 4.8129e-06 -1.18897e-06 2.33394e-06 -0.0640334 -0.0118091 7.34852e-07 0.143711 -0.19965)
(-7.57211e-07 1.28239e-06 -2.70879e-06 -2.05462e-07 -0.064098 -0.0118243 2.76023e-05 0.143705 -0.199657)
(-2.11682e-08 8.2946e-07 1.55179e-06 -2.61222e-06 -0.0641065 -0.0118101 -3.38542e-05 0.143727 -0.199668)
(1.13387e-06 -2.19933e-06 1.05645e-06 3.01094e-06 -0.0640338 -0.0118101 1.5897e-06 0.143712 -0.199652)
(4.3006e-07 -1.94786e-06 -2.10937e-06 2.44422e-06 -0.0640979 -0.0118231 2.82974e-05 0.143701 -0.199658)
(-2.21756e-07 1.12458e-06 5.05434e-06 3.44532e-06 -0.0640945 -0.0118003 5.05461e-06 0.143676 -0.19967)
(-2.93773e-06 2.97279e-06 5.3587e-06 2.61087e-06 -0.0640073 -0.0118577 -5.87003e-07 0.144206 -0.199619)
(-2.61865e-06 -4.69631e-06 -5.42024e-06 -5.90721e-06 -0.0640076 -0.0118383 -2.96411e-05 0.144216 -0.199624)
(1.11996e-06 -8.17609e-07 -5.96631e-06 -4.31131e-06 -0.0640913 -0.0117943 -3.21925e-05 0.14349 -0.199652)
(1.06727e-07 6.83342e-06 2.99575e-06 3.04675e-06 -0.0641006 -0.0118075 -2.07002e-05 0.143715 -0.199672)
(-2.47214e-06 -7.39545e-06 6.56393e-07 -4.19557e-07 -0.0640354 -0.0118414 -3.48083e-05 0.144227 -0.199635)
(-4.34452e-06 8.35068e-06 1.47628e-06 -6.51325e-07 -0.0640943 -0.011791 -5.43702e-05 0.143462 -0.199646)
(-2.08103e-05 -8.24652e-07 4.3369e-06 8.97518e-06 -0.0640483 -0.0118481 -9.3471e-05 0.144316 -0.199618)
(-0.000189833 -0.000236468 -8.10734e-05 3.12909e-05 -0.0641014 -0.0118167 -0.000300056 0.143621 -0.199584)
(-0.001806 -0.00103685 -0.000799584 -1.43705e-06 -0.0633117 -0.01163 -0.00196527 0.141108 -0.199894)
(-0.016532 -0.00145409 0.00456753 -0.000287938 -0.060231 -0.0111346 -0.0203141 0.132505 -0.201945)
(-0.0763191 0.00107219 0.104121 -0.00341364 -0.0575865 -0.00938746 -0.197691 0.125783 -0.153346)
(-0.0818944 -0.00282088 -0.107735 0.00644889 -0.0351821 0.0054383 0.204547 0.0764505 -0.154241)
(-0.0170918 0.00100015 -0.00471381 0.000758499 -0.0372452 0.00345506 0.0210266 0.0811427 -0.205366)
(-0.00186883 0.000756492 0.000845233 0.000233154 -0.0391218 0.00392995 0.00214611 0.0873524 -0.203477)
(-0.000207596 0.000168803 8.42123e-05 3.2451e-05 -0.0396463 0.00401529 0.000298061 0.0890297 -0.203186)
(-2.08512e-05 4.05795e-06 -2.71681e-06 -4.89568e-06 -0.0396563 0.00401594 8.21327e-05 0.0891225 -0.203249)
(-4.12254e-06 -9.99482e-06 1.74036e-07 -2.66186e-06 -0.039599 0.00398639 6.36848e-05 0.0889505 -0.203211)
(-2.24324e-06 1.88793e-06 -2.10018e-06 8.54631e-07 -0.0396237 0.00401406 6.05526e-05 0.0889019 -0.203239)
(-2.15854e-06 4.82985e-06 -4.41216e-07 -2.04518e-06 -0.0396409 0.00398383 3.01695e-05 0.0891002 -0.203261)
(-1.09506e-06 -1.82594e-06 1.76356e-06 2.90936e-06 -0.0396352 0.00398905 1.45229e-05 0.0889491 -0.203223)
(8.27798e-07 -2.06587e-06 4.73436e-07 2.9331e-06 -0.0396321 0.0040147 1.43476e-05 0.0890694 -0.203257)
(-1.05456e-06 -7.35004e-07 -6.77268e-08 -3.48272e-06 -0.0396284 0.00400898 2.20444e-05 0.0890512 -0.203252)
(-2.74727e-06 2.22159e-06 1.81677e-06 -5.83189e-07 -0.039634 0.00397702 -1.58954e-05 0.0890684 -0.203228)
(3.90297e-07 8.06918e-06 3.54063e-07 3.95055e-06 -0.0395875 0.00399961 -1.02244e-05 0.0890895 -0.203235)
(1.07844e-06 6.9414e-07 -1.70827e-06 9.8504e-07 -0.0396082 0.003991 2.06637e-05 0.0894231 -0.203261)
(-8.30987e-07 -5.9879e-06 -6.62729e-07 -8.96845e-07 -0.0396265 0.00400815 -7.35592e-07 0.0890801 -0.203255)
(2.32209e-07 7.06606e-06 5.62147e-08 1.25066e-06 -0.0396357 0.00401076 -5.39875e-06 0.0890933 -0.203258)
(9.17282e-07 -1.2388e-06 5.11708e-07 -1.1059e-07 -0.0396097 0.00399083 1.78201e-06 0.0894223 -0.203263)
(1.10335e-07 -8.26753e-06 9.29653e-07 -1.23708e-08 -0.0396258 0.00400842 1.84791e-06 0.0890774 -0.203255)
(-5.17063e-07 -3.02988e-08 -1.30553e-06 -3.04874e-06 -0.0396283 0.00401719 2.79041e-06 0.0890492 -0.203235)
(-2.55126e-06 1.62589e-06 -1.46616e-06 -3.27779e-06 -0.0396337 0.00397804 -3.64519e-06 0.0890824 -0.203255)
(-2.09121e-06 -5.6372e-07 2.36895e-06 3.10886e-06 -0.0396354 0.00398253 -4.64496e-05 0.089081 -0.203237)
(9.45027e-07 1.8489e-07 8.3174e-08 2.91258e-06 -0.0395974 0.00401133 -3.08193e-05 0.0890648 -0.203227)
(-3.40672e-07 -1.49467e-07 -2.9015e-06 -2.66339e-06 -0.0396295 0.00401281 -2.63715e-06 0.0890863 -0.203261)
(-2.39185e-06 -5.07796e-06 2.0109e-06 -2.39221e-06 -0.039639 0.00398963 -5.45481e-05 0.0889523 -0.203246)
(-3.54936e-06 7.56906e-06 7.05199e-07 1.6799e-06 -0.0395912 0.00401166 -5.54064e-05 0.0889081 -0.203204)
(-2.2025e-05 -3.51576e-06 2.15525e-06 2.85324e-06 -0.0396646 0.00398635 -7.03247e-05 0.0891525 -0.203244)
(-0.000209512 -0.000166329 -8.19586e-05 -2.94889e-05 -0.0396326 0.00400812 -0.000303467 0.088987 -0.203177)
(-0.00186864 -0.000752986 -0.000845741 -0.000231871 -0.0390976 0.00391052 -0.00215848 0.0876572 -0.203451)
(-0.0170901 -0.00100849 0.00471269 -0.000760859 -0.0372437 0.00345525 -0.0210316 0.0811406 -0.205363)
(-0.0818993 0.00281242 0.107733 -0.006439 -0.0351732 0.00544392 -0.204542 0.0762929 -0.154225)
(-0.0860743 -0.00311273 -0.112157 0.00666707 -0.0220689 0.00482645 0.212967 0.0479952 -0.152241)
(-0.0177761 0.000666166 -0.00487249 0.00087356 -0.0235874 0.00285238 0.0220116 0.0507439 -0.205723)
(-0.00195222 0.000561757 0.000909994 0.000262851 -0.0249421 0.00331317 0.00242281 0.0555179 -0.203759)
(-0.000235384 0.000123256 9.60064e-05 4.97139e-05 -0.0252981 0.00340086 0.000327282 0.0565717 -0.203428)
(-2.61449e-05 1.10401e-05 -4.15724e-06 2.42805e-07 -0.0253001 0.00340386 8.22465e-05 0.0565498 -0.203484)
(-3.83396e-06 -5.18897e-06 -6.60484e-07 -3.55082e-06 -0.025257 0.00338597 4.21534e-05 0.0568598 -0.20351)
(-1.9392e-06 -4.56305e-06 -4.62046e-07 -8.80561e-07 -0.0252581 0.00339698 5.65921e-05 0.0564983 -0.203486)
(-1.90166e-06 4.75744e-06 -5.57383e-07 -5.11796e-07 -0.0252953 0.00340468 2.73651e-05 0.0566399 -0.203512)
(-5.58502e-07 -1.63537e-06 1.54007e-06 1.47448e-06 -0.0252689 0.0033964 1.73817e-05 0.0566531 -0.2035)
(8.89181e-08 -4.4403e-06 9.33652e-07 2.42449e-07 -0.0252977 0.00339967 3.29252e-05 0.0566267 -0.203488)
(-1.24636e-06 -3.77914e-07 -6.32401e-07 -3.64342e-06 -0.0252803 0.00339898 1.68485e-05 0.0565069 -0.20349)
(-1.87162e-06 6.4844e-06 -9.62972e-07 1.67548e-06 -0.0252956 0.0034016 3.41631e-06 0.0566303 -0.203498)
(1.77533e-07 5.61326e-06 -1.44964e-06 3.98735e-06 -0.0252855 0.0033821 -5.72572e-06 0.0568424 -0.203514)
(6.91426e-07 -2.99094e-06 5.19787e-07 1.6144e-07 -0.0253124 0.00339261 1.58497e-06 0.0566827 -0.203511)
(-7.04087e-07 -4.21502e-06 1.24468e-06 6.99388e-09 -0.0252903 0.00339795 -2.66765e-07 0.0566368 -0.203507)
(1.36083e-07 4.20213e-06 -1.91242e-06 7.86308e-07 -0.0253014 0.00339994 -4.55959e-06 0.0566396 -0.203507)
(8.81265e-07 -2.27433e-07 5.87884e-07 -5.94028e-07 -0.0253135 0.00339309 7.73371e-07 0.0566801 -0.203513)
(-1.5757e-07 -5.67868e-06 3.16143e-06 -8.10406e-07 -0.0252895 0.00339759 2.64854e-06 0.0566358 -0.203507)
(-8.7484e-07 -4.54179e-07 -1.02248e-06 -2.74333e-06 -0.0252965 0.00339855 -1.04226e-06 0.0566263 -0.203478)
(-1.70621e-06 1.56435e-06 -1.57374e-06 -1.9632e-06 -0.0252936 0.0034018 -7.61683e-06 0.0566296 -0.203508)
(-1.38057e-06 2.57369e-06 1.23737e-06 2.9226e-06 -0.0252941 0.00340165 -2.17642e-05 0.0566406 -0.203503)
(-3.44948e-08 3.47771e-07 8.98883e-08 3.24058e-06 -0.0252731 0.00338523 -2.5936e-05 0.0567391 -0.203502)
(-9.5423e-07 -1.49203e-06 -1.3439e-06 -9.8972e-07 -0.0252913 0.00339873 -4.09264e-05 0.0566406 -0.20351)
(-1.60348e-06 2.73019e-07 4.2726e-07 -2.07442e-06 -0.0252761 0.00340624 -5.24703e-05 0.0566302 -0.203502)
(-3.29543e-06 3.23472e-06 8.20057e-07 1.49896e-06 -0.0252529 0.00338 -3.58548e-05 0.0567244 -0.203488)
(-2.70441e-05 -9.09973e-06 3.62893e-06 -1.08581e-06 -0.0253145 0.0034055 -7.401e-05 0.0566715 -0.203493)
(-0.000236777 -0.000123067 -9.62395e-05 -5.02825e-05 -0.0252959 0.00340381 -0.000330703 0.0565358 -0.203418)
(-0.00195227 -0.000559082 -0.000910158 -0.00026015 -0.0249589 0.00330006 -0.00242969 0.0555606 -0.203754)
(-0.0177734 -0.000669222 0.00487421 -0.000872945 -0.0235868 0.00285272 -0.0220373 0.0507413 -0.205722)
(-0.0860819 0.00310755 0.112134 -0.00665779 -0.0220375 0.00482357 -0.212921 0.0479789 -0.152229)
(-0.0887577 -0.00259312 -0.116015 0.00538733 -0.0139579 0.00255809 0.220319 0.0304164 -0.151221)
(-0.0183726 0.000425497 -0.00501646 0.000791295 -0.0148892 0.000984935 0.0229567 0.0318081 -0.206544)
(-0.0020336 0.000414333 0.000954929 0.000225106 -0.0159467 0.00130074 0.00268244 0.0351056 -0.204481)
(-0.000260118 9.72214e-05 0.000102349 5.04198e-05 -0.0162003 0.0013506 0.000366787 0.0361157 -0.204179)
(-3.15042e-05 1.22944e-05 -5.69401e-06 3.65023e-06 -0.0161896 0.0013513 9.94775e-05 0.0361956 -0.204244)
(-4.34721e-06 -1.60626e-06 -1.20133e-06 -2.89805e-06 -0.0162078 0.00134412 5.52369e-05 0.036364 -0.204279)
(-1.63544e-06 -5.78525e-06 1.64163e-06 -1.68953e-06 -0.0161634 0.00134248 3.94629e-05 0.0362199 -0.204256)
(-1.68753e-06 2.67198e-06 -5.57135e-07 3.43493e-07 -0.0162029 0.00135396 4.06247e-05 0.0361851 -0.204266)
(-9.44207e-07 -2.30654e-06 7.60311e-07 -9.0865e-07 -0.0161954 0.00134526 1.8101e-05 0.0363389 -0.204278)
(-1.95783e-07 -4.33591e-06 9.90093e-07 -1.23688e-06 -0.0161956 0.00134504 1.70409e-06 0.0360934 -0.204251)
(-7.67953e-07 -3.12806e-07 3.17979e-07 -2.4569e-06 -0.016175 0.001345 1.3491e-05 0.0361741 -0.204255)
(-1.22111e-06 1.17194e-06 -1.55907e-06 -5.92203e-07 -0.0161972 0.00134881 1.89935e-05 0.0360911 -0.20423)
(8.74896e-08 4.70853e-06 -1.4438e-06 4.46121e-06 -0.0162153 0.0013479 -1.89168e-06 0.036111 -0.204252)
(2.82369e-07 -2.57631e-07 1.46056e-06 1.7333e-06 -0.0162149 0.00135686 2.31452e-06 0.0362081 -0.204265)
(-7.06013e-07 -3.77641e-06 8.04107e-07 -1.11728e-06 -0.0162013 0.00134888 1.04098e-07 0.0361838 -0.204264)
(1.12005e-07 2.41986e-06 -9.15668e-07 9.80675e-07 -0.0161997 0.0013499 -3.9328e-06 0.0360908 -0.204253)
(5.97939e-07 1.1403e-06 4.20453e-08 2.44954e-07 -0.0162152 0.00135719 -2.89239e-08 0.0362051 -0.204267)
(-3.19524e-07 -4.86503e-06 2.02177e-06 -3.18792e-06 -0.0162005 0.00134854 1.30169e-06 0.0361841 -0.204264)
(-7.47621e-07 -8.55174e-07 -4.6467e-07 -1.82949e-06 -0.0161981 0.00134025 -3.30266e-06 0.0360973 -0.20423)
(-1.41807e-06 2.10478e-06 -8.46451e-07 4.37867e-07 -0.016207 0.00135464 -8.50515e-06 0.0361762 -0.204261)
(-1.05046e-06 3.53196e-06 -9.45239e-07 2.11208e-06 -0.0162099 0.00135284 -3.43486e-05 0.0361834 -0.204242)
(1.62563e-07 7.40437e-07 -4.9971e-07 2.69079e-06 -0.016192 0.00134205 -2.29232e-05 0.0362133 -0.204262)
(-1.40367e-06 -7.36026e-07 1.30151e-06 -1.90778e-07 -0.0162014 0.00134883 -9.27517e-06 0.0361867 -0.204267)
(-1.89411e-06 2.61181e-06 -1.73657e-06 -1.20596e-06 -0.0161926 0.00134853 -5.24065e-05 0.0362368 -0.204244)
(-3.35163e-06 -1.29963e-07 5.5776e-07 9.56945e-07 -0.0161845 0.00133672 -5.1002e-05 0.0362539 -0.204256)
(-3.23813e-05 -1.21314e-05 6.91896e-06 -4.36535e-06 -0.0162202 0.00135599 -7.80179e-05 0.0361998 -0.204244)
(-0.000261324 -9.5197e-05 -0.000103047 -4.99759e-05 -0.0161954 0.00135121 -0.00038828 0.0360017 -0.204138)
(-0.00203317 -0.000411151 -0.000955959 -0.000222325 -0.015955 0.00130611 -0.00268436 0.0351201 -0.204498)
(-0.0183697 -0.000424202 0.00501739 -0.000790024 -0.0148891 0.000986155 -0.0229621 0.0318047 -0.206542)
(-0.0887573 0.00259624 0.115989 -0.00538826 -0.0139457 0.00255041 -0.220267 0.0305546 -0.151223)
(-0.0904137 -0.00185793 -0.118843 0.00378557 -0.00882589 0.00124031 0.225713 0.019269 -0.150948)
(-0.0188086 0.000268417 -0.00512396 0.000626725 -0.00930345 0.000145525 0.0237248 0.0198659 -0.207542)
(-0.00210039 0.000299538 0.000983127 0.000175857 -0.0101051 0.000346694 0.00288363 0.0223064 -0.205479)
(-0.000279675 7.46595e-05 0.000106117 4.20125e-05 -0.0103179 0.000374764 0.000444774 0.0229891 -0.205158)
(-3.68085e-05 9.54441e-06 -5.4535e-06 4.06946e-06 -0.0103254 0.000373997 0.000104808 0.0231759 -0.205224)
(-4.90191e-06 5.71455e-08 -2.42388e-06 -1.79388e-06 -0.0103431 0.000380729 3.85535e-05 0.0230862 -0.205252)
(-1.2909e-06 -3.59e-06 1.50636e-06 -1.59393e-06 -0.0103078 0.000368035 3.92404e-05 0.0231779 -0.205235)
(-1.74548e-06 -1.63796e-06 -1.53509e-09 -9.81356e-07 -0.0103248 0.000375007 3.89495e-05 0.0230533 -0.20525)
(-8.74576e-07 -1.82919e-07 -2.43157e-07 -3.15384e-07 -0.0103346 0.000375301 3.59961e-06 0.0230719 -0.205253)
(-2.20733e-07 -3.62691e-07 8.82463e-07 6.97786e-08 -0.0103035 0.000370004 1.60082e-05 0.0230548 -0.205246)
(-1.11742e-06 -6.86759e-07 1.20775e-07 -2.08723e-06 -0.0103133 0.000369558 1.13499e-05 0.0231642 -0.205255)
(-4.87997e-07 -1.57417e-06 -3.83897e-07 -1.67193e-06 -0.0103089 0.000368372 -1.01268e-05 0.0230593 -0.205237)
(6.42634e-07 2.06735e-06 1.59815e-07 3.13756e-06 -0.01031 0.000376733 1.55668e-05 0.0229826 -0.20523)
(-4.24271e-07 -1.87299e-07 7.16644e-07 1.36516e-06 -0.0103315 0.000377926 1.7383e-05 0.0230674 -0.205246)
(-8.54612e-07 -1.17573e-06 -1.46254e-07 -3.4338e-07 -0.0103242 0.000373163 -1.40957e-05 0.0230525 -0.205248)
(4.08529e-07 1.42501e-06 -2.50825e-07 9.56437e-07 -0.0103067 0.000372534 -3.11673e-06 0.0230533 -0.205242)
(4.7545e-08 -3.91047e-07 3.16007e-07 -5.73062e-07 -0.0103316 0.000377886 1.3407e-05 0.0230645 -0.205248)
(-5.72459e-07 -2.26739e-06 -2.26473e-07 -2.7797e-06 -0.0103234 0.000373408 -1.53287e-05 0.0230534 -0.205248)
(-1.49682e-07 -1.74768e-06 1.96327e-07 -1.97292e-06 -0.0103099 0.000364541 -4.56807e-06 0.0230598 -0.205241)
(-9.17896e-07 -8.01195e-07 9.43385e-07 -9.91408e-07 -0.0103202 0.000374193 5.70243e-06 0.0229659 -0.205234)
(-9.29989e-07 5.57972e-06 -1.28062e-06 3.64178e-06 -0.010327 0.000370402 -1.79366e-05 0.0229809 -0.205218)
(-4.95067e-07 2.04594e-06 -7.11357e-07 3.4804e-06 -0.0103251 0.000375734 -2.04499e-05 0.0231852 -0.205258)
(-1.73358e-06 -1.61319e-06 -4.81417e-08 -1.16715e-06 -0.010324 0.000373556 -3.84579e-05 0.0230548 -0.205251)
(-1.37393e-06 3.66264e-06 -1.99393e-06 2.32841e-07 -0.0103166 0.000369355 -5.18404e-05 0.0230758 -0.205242)
(-3.92731e-06 -2.29985e-06 2.3125e-06 -2.56156e-07 -0.0103128 0.000372983 -3.56468e-05 0.0231101 -0.205239)
(-3.72307e-05 -1.12806e-05 6.52604e-06 -5.8529e-06 -0.0103281 0.000375469 -9.74108e-05 0.0229781 -0.205217)
(-0.000280369 -7.00245e-05 -0.000106214 -3.86018e-05 -0.0103059 0.000366703 -0.000449743 0.0229851 -0.205124)
(-0.00210028 -0.000297816 -0.000983169 -0.000174062 -0.0101105 0.000353827 -0.00287471 0.0223081 -0.205474)
(-0.0188066 -0.000267346 0.00512307 -0.000627277 -0.00930449 0.000148155 -0.0237293 0.0198597 -0.207538)
(-0.090409 0.00186385 0.11883 -0.00379367 -0.00883277 0.00123788 -0.225689 0.0192948 -0.150952)
(-0.0914314 -0.00121423 -0.120712 0.00243845 -0.00557244 0.000649745 0.229279 0.0121745 -0.150928)
(-0.0190946 0.000169661 -0.00519519 0.000451674 -0.00577307 -5.41318e-05 0.0243208 0.0123735 -0.208339)
(-0.00215054 0.000211435 0.00100078 0.000132829 -0.00638293 7.18034e-05 0.00304126 0.0141774 -0.206287)
(-0.000294475 5.3154e-05 0.00010781 3.0417e-05 -0.00654159 8.89525e-05 0.000467233 0.0145838 -0.205958)
(-4.02655e-05 7.27126e-06 -4.50101e-06 3.64204e-06 -0.00656263 8.70866e-05 0.000108272 0.0146608 -0.206023)
(-5.47989e-06 1.91718e-06 -2.39386e-06 2.7315e-07 -0.00656178 9.56157e-05 5.07041e-05 0.0146583 -0.206053)
(-1.47293e-06 -2.13398e-06 4.97213e-07 -1.61712e-06 -0.00655654 8.86829e-05 3.69115e-05 0.0147559 -0.20606)
(-1.43182e-06 -2.69902e-06 8.96212e-07 -1.24647e-06 -0.00655009 8.83369e-05 2.48202e-05 0.0146395 -0.206055)
(-7.3398e-07 1.95815e-06 -2.4025e-07 1.08577e-06 -0.00655609 9.31696e-05 1.7721e-05 0.0146486 -0.206056)
(-5.50152e-07 -6.54747e-08 -1.58619e-07 -3.51357e-07 -0.00654289 8.95437e-05 1.56697e-05 0.0147368 -0.20606)
(-1.11629e-06 -1.39159e-06 -8.37257e-09 -2.28329e-06 -0.00655409 8.87696e-05 9.55714e-06 0.0146483 -0.206053)
(-1.76156e-07 1.82381e-06 -1.23962e-07 1.02278e-06 -0.00653923 8.41888e-05 -9.53501e-06 0.0146681 -0.206048)
(6.94908e-07 1.75392e-07 4.66951e-07 1.67749e-06 -0.00653267 8.73897e-05 3.83165e-06 0.0147478 -0.206048)
(-4.13819e-07 -3.09704e-06 7.46449e-07 -1.16993e-06 -0.00655355 8.93918e-05 1.714e-05 0.0146489 -0.20605)
(-7.87758e-07 1.18924e-06 -2.74239e-07 9.33426e-07 -0.00655111 8.6804e-05 1.5377e-08 0.0146391 -0.206052)
(6.60686e-08 9.49224e-07 2.89839e-08 8.41044e-07 -0.00654469 8.88334e-05 -2.39456e-06 0.0147363 -0.206057)
(-1.49289e-07 -2.19753e-06 2.16914e-07 -1.73532e-06 -0.00655361 8.92112e-05 -1.44056e-06 0.0146462 -0.206053)
(-5.99496e-07 -5.33577e-07 -6.47175e-07 -1.82407e-06 -0.00654956 8.77716e-05 -3.02879e-06 0.0146402 -0.206052)
(-3.89962e-07 -2.14516e-07 -3.07827e-07 -7.2786e-07 -0.00654379 8.61664e-05 -1.88688e-05 0.0146633 -0.206049)
(-2.95134e-07 -1.30252e-06 3.25663e-07 -1.24658e-06 -0.00653422 8.45589e-05 -2.28364e-05 0.0146392 -0.206042)
(-1.56097e-07 2.541e-06 -6.36869e-07 2.04103e-06 -0.00653074 8.01571e-05 -2.11272e-06 0.0145752 -0.206038)
(-7.99224e-07 1.33986e-06 1.31114e-07 2.85439e-06 -0.00656131 9.21206e-05 -4.36191e-06 0.0146604 -0.206054)
(-2.05318e-06 9.70337e-07 2.5634e-08 6.08565e-07 -0.00654968 8.84605e-05 -2.50447e-05 0.0146408 -0.206055)
(-1.71191e-06 4.84299e-06 -1.85115e-06 2.2144e-06 -0.00655018 8.949e-05 -5.07718e-05 0.0147502 -0.20606)
(-4.56878e-06 -2.42134e-06 1.78061e-06 -7.9399e-07 -0.00654644 9.27264e-05 -6.23883e-05 0.0147618 -0.20605)
(-4.00504e-05 -1.07492e-05 5.66299e-06 -7.07792e-06 -0.00653823 8.69516e-05 -8.94768e-05 0.0146448 -0.206024)
(-0.000294966 -5.1673e-05 -0.000107375 -2.90616e-05 -0.00653672 8.06563e-05 -0.000454485 0.0146041 -0.205948)
(-0.00215091 -0.000210869 -0.000999669 -0.000131281 -0.00638708 7.43608e-05 -0.00304583 0.0141777 -0.206279)
(-0.0190936 -0.000168666 0.0051942 -0.000451972 -0.00577496 -5.52323e-05 -0.024328 0.0123728 -0.208317)
(-0.0914279 0.00121961 0.120704 -0.00244624 -0.00557664 0.000653768 -0.229265 0.0121889 -0.150934)
(-0.0920578 -0.000749421 -0.12187 0.0014878 -0.00351863 0.000378308 0.231487 0.00767285 -0.150956)
(-0.0192697 0.000106318 -0.00523955 0.000302278 -0.00357761 -5.36016e-05 0.0247189 0.00770329 -0.208866)
(-0.00218464 0.000145834 0.00101174 9.8209e-05 -0.00403074 2.61143e-05 0.00316033 0.00887431 -0.206817)
(-0.000305512 3.87197e-05 0.000109174 2.29766e-05 -0.00414233 3.46798e-05 0.000494634 0.0092315 -0.206499)
(-4.28373e-05 5.50798e-06 -4.12087e-06 3.18374e-06 -0.00415932 3.43672e-05 0.000109508 0.00928941 -0.20658)
(-5.95374e-06 1.27576e-06 -2.10461e-06 4.88405e-07 -0.00415822 3.68722e-05 5.03761e-05 0.0092894 -0.206597)
(-1.59482e-06 -1.25374e-06 5.06073e-08 -1.22209e-06 -0.00416362 3.91078e-05 3.54934e-05 0.00929543 -0.206601)
(-1.2049e-06 -1.54881e-06 8.95805e-07 -6.79797e-07 -0.00415108 3.40665e-05 2.46732e-05 0.00927761 -0.2066)
(-6.95554e-07 1.25808e-06 -1.79556e-09 4.39881e-07 -0.00415434 3.60741e-05 1.83871e-05 0.00928302 -0.206599)
(-8.94544e-07 3.81527e-08 2.45868e-09 -3.67279e-07 -0.00415768 3.70226e-05 1.54655e-05 0.00928873 -0.206586)
(-8.42595e-07 4.57315e-08 -9.50213e-07 -6.35625e-07 -0.0041536 3.77802e-05 -4.78041e-06 0.00928314 -0.206596)
(3.04159e-07 2.70918e-06 -6.59881e-07 1.81637e-06 -0.0041432 3.32776e-05 4.86874e-06 0.00929276 -0.20659)
(2.04092e-07 -7.97163e-07 1.20043e-06 4.6481e-07 -0.00415511 3.52482e-05 1.78891e-05 0.00937981 -0.206598)
(-5.73084e-07 -3.87464e-06 5.9952e-07 -2.28526e-06 -0.00415301 3.42768e-05 3.09012e-06 0.00928448 -0.206595)
(-4.52418e-07 5.96367e-07 -2.57931e-07 2.3007e-07 -0.00415564 3.40505e-05 3.92216e-07 0.00927613 -0.206596)
(-1.25221e-07 9.24814e-07 2.3061e-07 9.30533e-07 -0.00415801 3.48561e-05 -1.9125e-06 0.00928963 -0.206585)
(-4.85478e-07 -1.3656e-06 1.03647e-07 -9.32699e-07 -0.00415277 3.40434e-05 -2.40972e-06 0.0092819 -0.206598)
(-3.70966e-07 -3.0332e-07 -8.35433e-07 -1.69378e-06 -0.00415192 3.25432e-05 -1.70003e-05 0.0092786 -0.206596)
(-3.41828e-08 1.31978e-06 -4.46216e-07 5.53407e-07 -0.00414032 3.2311e-05 -5.57071e-06 0.00922264 -0.206569)
(-3.64118e-07 1.80824e-06 -2.58484e-07 1.63929e-06 -0.00415006 3.30411e-05 -9.76872e-06 0.00936365 -0.206596)
(-1.09797e-07 1.63268e-07 2.31709e-07 6.31803e-07 -0.0041333 2.94357e-05 -1.4411e-05 0.00937496 -0.206595)
(-7.8156e-07 -1.74229e-06 9.49331e-07 5.65173e-09 -0.00415793 3.8688e-05 -3.49336e-06 0.00929011 -0.206596)
(-1.86158e-06 6.11026e-07 -5.74258e-07 3.77821e-07 -0.00415094 3.46229e-05 -2.48092e-05 0.00927885 -0.2066)
(-1.65445e-06 4.31142e-06 -1.14075e-06 2.69787e-06 -0.00416109 3.7045e-05 -3.60142e-05 0.0092932 -0.206599)
(-5.78578e-06 9.20002e-08 1.80481e-06 6.42992e-07 -0.00416373 4.09256e-05 -4.88056e-05 0.00938498 -0.206597)
(-4.28842e-05 -9.33588e-06 4.112e-06 -6.92071e-06 -0.00414928 3.38777e-05 -0.000121343 0.00936646 -0.206577)
(-0.00030521 -3.97959e-05 -0.000108732 -2.39306e-05 -0.00413252 2.92829e-05 -0.000495409 0.00916776 -0.206481)
(-0.00218486 -0.000145464 -0.00101035 -9.66353e-05 -0.00403339 2.56128e-05 -0.00314993 0.00887419 -0.206809)
(-0.0192696 -0.000105258 0.00523895 -0.000301796 -0.00357766 -5.80674e-05 -0.0247232 0.00770437 -0.208865)
(-0.0920562 0.000753855 0.121867 -0.00149385 -0.00351921 0.000382449 -0.231483 0.00768229 -0.15096)
(-0.0924427 -0.000446774 -0.12256 0.000879352 -0.00222873 0.000234239 0.232803 0.00481944 -0.150981)
(-0.0193725 6.72398e-05 -0.00526563 0.000192694 -0.00222533 -2.67487e-05 0.024976 0.00479645 -0.20919)
(-0.0022064 9.84916e-05 0.00101843 7.06027e-05 -0.00254355 2.35398e-05 0.00324696 0.00557572 -0.20715)
(-0.00031348 2.7438e-05 0.00010946 1.68961e-05 -0.00262874 2.66063e-05 0.000515763 0.00583097 -0.206839)
(-4.47631e-05 4.09233e-06 -4.06254e-06 2.55379e-06 -0.00264618 2.59302e-05 0.000114429 0.00587706 -0.206911)
(-6.36106e-06 1.05661e-06 -1.44575e-06 8.78678e-07 -0.00264174 2.67106e-05 5.01586e-05 0.00587498 -0.20694)
(-1.70657e-06 -7.04989e-07 -6.39321e-08 -7.97039e-07 -0.00264445 3.07198e-05 3.44008e-05 0.00587716 -0.206942)