/*--------------------------------*- C++ -*----------------------------------*\
| =========                 |                                                 |
| \\      /  F ield         | OpenFOAM: The Open Source CFD Toolbox           |
|  \\    /   O peration     | Version:  2106                                  |
|   \\  /    A nd           | Website:  www.openfoam.com                      |
|    \\/     M anipulation  |                                                 |
\*---------------------------------------------------------------------------*/
FoamFile
{
    version     2.0;
    format      ascii;
    arch        "LSB;label=32;scalar=64";
    class       volVectorField;
    location    "193";
    object      D;
}
// * * * * * * * * * * * * * * * * * * * * * * * * * * * * * * * * * * * * * //

dimensions      [0 1 0 0 0 0 0];

internalField   nonuniform List<vector> 
9000
(
(1.14243e-05 2.08853e-05 3.1628e-06)
(1.32853e-06 2.19863e-05 1.01391e-07)
(2.19205e-07 2.33428e-05 1.25364e-06)
(3.82201e-08 2.36467e-05 1.46822e-06)
(4.12121e-09 2.36565e-05 1.47193e-06)
(1.3579e-09 2.36239e-05 1.45171e-06)
(1.3485e-09 2.36451e-05 1.46572e-06)
(1.38055e-10 2.3623e-05 1.45154e-06)
(1.60094e-09 2.36231e-05 1.4516e-06)
(-1.24951e-10 2.36491e-05 1.46806e-06)
(-2.12654e-09 2.36358e-05 1.45843e-06)
(1.59307e-09 2.3612e-05 1.44335e-06)
(2.30057e-09 2.36467e-05 1.46669e-06)
(-1.20017e-09 2.36456e-05 1.46547e-06)
(2.93334e-10 2.36386e-05 1.45984e-06)
(1.11357e-09 2.36506e-05 1.46892e-06)
(-1.4874e-09 2.36456e-05 1.46539e-06)
(6.90564e-11 2.3639e-05 1.45999e-06)
(-1.23016e-09 2.36481e-05 1.46765e-06)
(-1.23302e-09 2.36107e-05 1.44247e-06)
(1.86486e-09 2.36224e-05 1.4514e-06)
(3.79519e-10 2.3648e-05 1.46721e-06)
(-1.7589e-09 2.36492e-05 1.46789e-06)
(-1.50203e-09 2.36244e-05 1.45227e-06)
(-1.44667e-09 2.36449e-05 1.46534e-06)
(-6.53532e-09 2.36326e-05 1.45692e-06)
(-3.77477e-08 2.36305e-05 1.4571e-06)
(-2.17592e-07 2.33364e-05 1.24967e-06)
(-1.32822e-06 2.19861e-05 1.01329e-07)
(-1.14245e-05 2.08848e-05 3.16259e-06)
(1.10953e-05 1.25844e-05 -5.83794e-06)
(1.22597e-06 1.32059e-05 -9.25778e-06)
(1.4288e-07 1.40256e-05 -8.68446e-06)
(2.04726e-08 1.4231e-05 -8.60325e-06)
(4.39717e-09 1.42375e-05 -8.60389e-06)
(2.00779e-09 1.42215e-05 -8.60171e-06)
(1.45783e-09 1.42285e-05 -8.60523e-06)
(8.15375e-10 1.42216e-05 -8.60087e-06)
(6.81554e-10 1.42215e-05 -8.60096e-06)
(3.84381e-10 1.42314e-05 -8.60479e-06)
(6.67279e-11 1.4229e-05 -8.60239e-06)
(3.20262e-10 1.42206e-05 -8.59825e-06)
(2.3095e-10 1.42291e-05 -8.60518e-06)
(-1.52442e-10 1.42268e-05 -8.60426e-06)
(4.44684e-11 1.4231e-05 -8.60235e-06)
(5.47709e-11 1.42324e-05 -8.60465e-06)
(-2.02079e-10 1.42268e-05 -8.60425e-06)
(4.57665e-11 1.42313e-05 -8.6024e-06)
(-1.35644e-10 1.42307e-05 -8.60464e-06)
(-3.36304e-10 1.42199e-05 -8.59835e-06)
(-3.84536e-10 1.42211e-05 -8.60064e-06)
(-6.36579e-10 1.423e-05 -8.60551e-06)
(-9.63766e-10 1.42316e-05 -8.60489e-06)
(-1.27702e-09 1.42222e-05 -8.60112e-06)
(-1.82621e-09 1.42279e-05 -8.6057e-06)
(-4.59578e-09 1.42291e-05 -8.59975e-06)
(-2.04517e-08 1.42267e-05 -8.60078e-06)
(-1.42875e-07 1.4019e-05 -8.68398e-06)
(-1.22599e-06 1.32057e-05 -9.25771e-06)
(-1.10954e-05 1.25837e-05 -5.83811e-06)
(1.11639e-05 7.79113e-06 -7.40661e-06)
(1.2217e-06 8.21222e-06 -1.09355e-05)
(1.29743e-07 8.76044e-06 -1.04571e-05)
(1.49015e-08 8.90796e-06 -1.04021e-05)
(4.46284e-09 8.91431e-06 -1.04038e-05)
(2.22774e-09 8.90968e-06 -1.0401e-05)
(1.50652e-09 8.90725e-06 -1.04043e-05)
(1.23377e-09 8.91195e-06 -1.04009e-05)
(1.49147e-10 8.91144e-06 -1.04012e-05)
(2.46478e-10 8.90973e-06 -1.0404e-05)
(9.06802e-10 8.90776e-06 -1.04033e-05)
(-1.1501e-11 8.9107e-06 -1.04001e-05)
(-7.94729e-10 8.90665e-06 -1.04032e-05)
(7.54444e-11 8.90961e-06 -1.04022e-05)
(1.6191e-10 8.90932e-06 -1.04035e-05)
(-4.01154e-10 8.91044e-06 -1.04041e-05)
(1.25761e-10 8.90973e-06 -1.04022e-05)
(2.80472e-10 8.90944e-06 -1.04034e-05)
(4.58225e-10 8.90925e-06 -1.04038e-05)
(1.82774e-10 8.91061e-06 -1.04e-05)
(-1.24907e-09 8.91161e-06 -1.04006e-05)
(-1.19662e-09 8.9071e-06 -1.04037e-05)
(-4.65563e-10 8.90999e-06 -1.04041e-05)
(-1.21164e-09 8.91158e-06 -1.04014e-05)
(-1.93243e-09 8.90541e-06 -1.04038e-05)
(-3.77381e-09 8.91715e-06 -1.04006e-05)
(-1.54719e-08 8.90492e-06 -1.04009e-05)
(-1.30171e-07 8.75887e-06 -1.0455e-05)
(-1.22163e-06 8.21215e-06 -1.09353e-05)
(-1.11639e-05 7.79001e-06 -7.40692e-06)
(1.15481e-05 4.89986e-06 -7.09455e-06)
(1.26394e-06 5.1684e-06 -1.07461e-05)
(1.42527e-07 5.56649e-06 -1.02399e-05)
(1.60345e-08 5.67334e-06 -1.01812e-05)
(3.95079e-09 5.67937e-06 -1.01833e-05)
(2.19357e-09 5.67652e-06 -1.01834e-05)
(1.65397e-09 5.6732e-06 -1.01833e-05)
(1.04546e-09 5.67751e-06 -1.01844e-05)
(3.21527e-10 5.67604e-06 -1.01841e-05)
(4.54843e-10 5.67631e-06 -1.01834e-05)
(7.3223e-10 5.67476e-06 -1.01834e-05)
(-1.97146e-10 5.67647e-06 -1.01842e-05)
(-4.91401e-10 5.67613e-06 -1.01825e-05)
(2.60137e-10 5.68089e-06 -1.0183e-05)
(2.44392e-11 5.67636e-06 -1.01833e-05)
(-2.81395e-10 5.67697e-06 -1.01835e-05)
(1.45826e-10 5.68097e-06 -1.01831e-05)
(1.52796e-10 5.67641e-06 -1.01833e-05)
(2.56988e-10 5.67601e-06 -1.01833e-05)
(-1.37238e-12 5.67663e-06 -1.01842e-05)
(-1.21837e-09 5.67733e-06 -1.01843e-05)
(-9.91189e-10 5.67609e-06 -1.01829e-05)
(-4.6597e-10 5.67675e-06 -1.01834e-05)
(-1.41423e-09 5.67589e-06 -1.01843e-05)
(-1.90665e-09 5.67369e-06 -1.01825e-05)
(-3.40163e-09 5.68096e-06 -1.0184e-05)
(-1.63109e-08 5.67129e-06 -1.01809e-05)
(-1.42876e-07 5.56976e-06 -1.02394e-05)
(-1.26402e-06 5.16842e-06 -1.07459e-05)
(-1.15479e-05 4.89786e-06 -7.09407e-06)
(1.20223e-05 3.09508e-06 -6.6818e-06)
(1.32268e-06 3.24164e-06 -1.0475e-05)
(1.60891e-07 3.53891e-06 -9.93314e-06)
(1.92351e-08 3.61653e-06 -9.8669e-06)
(3.79876e-09 3.62138e-06 -9.8685e-06)
(1.92167e-09 3.62414e-06 -9.86976e-06)
(1.65501e-09 3.61821e-06 -9.86889e-06)
(9.18239e-10 3.62097e-06 -9.86996e-06)
(4.85844e-10 3.62115e-06 -9.86972e-06)
(6.89733e-10 3.61993e-06 -9.86937e-06)
(5.0365e-10 3.61828e-06 -9.86889e-06)
(-6.60846e-11 3.61995e-06 -9.87003e-06)
(-2.63989e-10 3.62244e-06 -9.86951e-06)
(1.79418e-10 3.62314e-06 -9.87031e-06)
(4.25449e-11 3.62041e-06 -9.86923e-06)
(-2.52498e-10 3.62046e-06 -9.86947e-06)
(1.0686e-10 3.62314e-06 -9.8704e-06)
(1.34727e-10 3.62045e-06 -9.86919e-06)
(3.60978e-11 3.61968e-06 -9.86935e-06)
(-1.76254e-10 3.62031e-06 -9.86997e-06)
(-8.81708e-10 3.62075e-06 -9.86995e-06)
(-7.61511e-10 3.62181e-06 -9.86911e-06)
(-8.21025e-10 3.62064e-06 -9.86922e-06)
(-1.54093e-09 3.62075e-06 -9.86986e-06)
(-1.69838e-09 3.62104e-06 -9.86902e-06)
(-3.45277e-09 3.62305e-06 -9.86936e-06)
(-1.94274e-08 3.61491e-06 -9.86698e-06)
(-1.61099e-07 3.54078e-06 -9.93413e-06)
(-1.32288e-06 3.24169e-06 -1.04748e-05)
(-1.20217e-05 3.09502e-06 -6.68131e-06)
(1.24369e-05 1.95387e-06 -6.45053e-06)
(1.38036e-06 2.02013e-06 -1.03655e-05)
(1.77585e-07 2.23722e-06 -9.79828e-06)
(2.26618e-08 2.2966e-06 -9.7275e-06)
(4.03382e-09 2.30212e-06 -9.72929e-06)
(1.84398e-09 2.30486e-06 -9.73114e-06)
(1.49666e-09 2.30119e-06 -9.72994e-06)
(1.02149e-09 2.30103e-06 -9.73015e-06)
(5.27059e-10 2.30292e-06 -9.73042e-06)
(4.8946e-10 2.29951e-06 -9.72973e-06)
(3.71995e-10 2.30012e-06 -9.72973e-06)
(8.0693e-11 2.29939e-06 -9.72993e-06)
(-8.29479e-11 2.30073e-06 -9.7307e-06)
(2.00923e-10 2.30226e-06 -9.73043e-06)
(2.04874e-11 2.30066e-06 -9.72993e-06)
(-2.02071e-10 2.29985e-06 -9.7298e-06)
(9.10823e-11 2.30225e-06 -9.73048e-06)
(6.06131e-11 2.30069e-06 -9.7299e-06)
(-8.86556e-11 2.29915e-06 -9.72976e-06)
(-2.42005e-10 2.30026e-06 -9.73026e-06)
(-8.33077e-10 2.30047e-06 -9.73036e-06)
(-6.24491e-10 2.30229e-06 -9.73066e-06)
(-6.98592e-10 2.30083e-06 -9.72995e-06)
(-1.6237e-09 2.30188e-06 -9.73018e-06)
(-1.7014e-09 2.30261e-06 -9.73085e-06)
(-3.68639e-09 2.30195e-06 -9.72956e-06)
(-2.29474e-08 2.29459e-06 -9.72734e-06)
(-1.77657e-07 2.23826e-06 -9.79866e-06)
(-1.38041e-06 2.02018e-06 -1.03654e-05)
(-1.24362e-05 1.95579e-06 -6.45068e-06)
(1.27412e-05 1.23162e-06 -6.3402e-06)
(1.42824e-06 1.25409e-06 -1.03435e-05)
(1.9097e-07 1.41028e-06 -9.75946e-06)
(2.58943e-08 1.45394e-06 -9.68663e-06)
(4.29868e-09 1.46001e-06 -9.68871e-06)
(1.64802e-09 1.46027e-06 -9.69011e-06)
(1.38989e-09 1.46016e-06 -9.69004e-06)
(1.05296e-09 1.45797e-06 -9.68918e-06)
(4.15847e-10 1.45904e-06 -9.68979e-06)
(5.20385e-10 1.45771e-06 -9.68918e-06)
(3.03027e-10 1.45884e-06 -9.6892e-06)
(-1.1156e-10 1.45738e-06 -9.68926e-06)
(1.57134e-10 1.45765e-06 -9.68931e-06)
(3.38968e-10 1.45868e-06 -9.68919e-06)
(-1.24625e-10 1.45772e-06 -9.68912e-06)
(-1.40086e-10 1.45794e-06 -9.68919e-06)
(1.86684e-10 1.45868e-06 -9.68925e-06)
(-1.41288e-10 1.45775e-06 -9.68907e-06)
(-1.67738e-10 1.4571e-06 -9.68934e-06)
(-1.66161e-10 1.45666e-06 -9.68889e-06)
(-6.21414e-10 1.45659e-06 -9.68916e-06)
(-5.26352e-10 1.46006e-06 -9.68963e-06)
(-9.09487e-10 1.45786e-06 -9.68917e-06)
(-1.64864e-09 1.45913e-06 -9.6898e-06)
(-1.587e-09 1.46021e-06 -9.69017e-06)
(-4.1102e-09 1.45771e-06 -9.68821e-06)
(-2.60545e-08 1.45298e-06 -9.68682e-06)
(-1.90837e-07 1.41086e-06 -9.75942e-06)
(-1.42827e-06 1.25408e-06 -1.03434e-05)
(-1.27408e-05 1.23285e-06 -6.34084e-06)
(1.29424e-05 7.75414e-07 -6.28469e-06)
(1.46405e-06 7.78066e-07 -1.0346e-05)
(2.01153e-07 8.88146e-07 -9.75141e-06)
(2.81963e-08 9.19131e-07 -9.67739e-06)
(4.58045e-09 9.23679e-07 -9.67973e-06)
(1.697e-09 9.2393e-07 -9.68028e-06)
(1.28966e-09 9.25007e-07 -9.68087e-06)
(9.3278e-10 9.22595e-07 -9.67997e-06)
(4.9743e-10 9.23167e-07 -9.68018e-06)
(4.98011e-10 9.23636e-07 -9.68011e-06)
(2.45331e-10 9.23097e-07 -9.68029e-06)
(-1.30355e-10 9.22765e-07 -9.6799e-06)
(1.73079e-10 9.24186e-07 -9.6802e-06)
(3.41524e-10 9.23049e-07 -9.67985e-06)
(-6.02752e-11 9.22388e-07 -9.67997e-06)
(-8.43351e-11 9.23808e-07 -9.68009e-06)
(7.79075e-11 9.23034e-07 -9.67992e-06)
(-1.55792e-10 9.22437e-07 -9.67986e-06)
(-3.08368e-10 9.22335e-07 -9.68014e-06)
(-3.63928e-10 9.22282e-07 -9.67992e-06)
(-4.03492e-10 9.21632e-07 -9.67993e-06)
(-3.45946e-10 9.23763e-07 -9.68041e-06)
(-8.53249e-10 9.22552e-07 -9.67999e-06)
(-1.58311e-09 9.24452e-07 -9.68035e-06)
(-1.78e-09 9.25632e-07 -9.681e-06)
(-4.40426e-09 9.22977e-07 -9.67918e-06)
(-2.81748e-08 9.18744e-07 -9.67754e-06)
(-2.01025e-07 8.88454e-07 -9.75125e-06)
(-1.4641e-06 7.78014e-07 -1.0346e-05)
(-1.29422e-05 7.76189e-07 -6.28497e-06)
(1.30671e-05 4.87491e-07 -6.25313e-06)
(1.48856e-06 4.83275e-07 -1.03506e-05)
(2.08755e-07 5.57987e-07 -9.74959e-06)
(2.99814e-08 5.80571e-07 -9.67461e-06)
(4.84071e-09 5.83887e-07 -9.6767e-06)
(1.72527e-09 5.84211e-07 -9.67726e-06)
(1.20859e-09 5.84748e-07 -9.67783e-06)
(8.73141e-10 5.83434e-07 -9.67722e-06)
(5.25636e-10 5.83753e-07 -9.67725e-06)
(4.66838e-10 5.84015e-07 -9.67756e-06)
(1.17127e-10 5.83712e-07 -9.67725e-06)
(2.00669e-11 5.84009e-07 -9.67765e-06)
(2.98448e-10 5.85391e-07 -9.67759e-06)
(1.76665e-10 5.83752e-07 -9.67708e-06)
(-4.08643e-11 5.83104e-07 -9.67733e-06)
(-3.49434e-11 5.84149e-07 -9.67752e-06)
(1.85654e-11 5.83729e-07 -9.67716e-06)
(-3.08947e-10 5.83277e-07 -9.67714e-06)
(-2.32424e-10 5.83137e-07 -9.67764e-06)
(-2.69191e-10 5.84062e-07 -9.67729e-06)
(-4.16864e-10 5.84372e-07 -9.67752e-06)
(-3.07002e-10 5.84079e-07 -9.67727e-06)
(-8.26328e-10 5.83431e-07 -9.67722e-06)
(-1.3723e-09 5.84475e-07 -9.67761e-06)
(-1.71895e-09 5.86165e-07 -9.67792e-06)
(-4.94456e-09 5.84638e-07 -9.67642e-06)
(-3.00372e-08 5.80022e-07 -9.67508e-06)
(-2.08485e-07 5.58107e-07 -9.7494e-06)
(-1.48862e-06 4.83192e-07 -1.03506e-05)
(-1.30672e-05 4.88117e-07 -6.25313e-06)
(1.31415e-05 3.05495e-07 -6.23382e-06)
(1.5044e-06 3.00373e-07 -1.0353e-05)
(2.14283e-07 3.50002e-07 -9.74785e-06)
(3.13341e-08 3.66081e-07 -9.67258e-06)
(5.0578e-09 3.68315e-07 -9.67466e-06)
(1.75756e-09 3.68798e-07 -9.67521e-06)
(1.1497e-09 3.69067e-07 -9.67541e-06)
(8.31159e-10 3.68361e-07 -9.67524e-06)
(5.37381e-10 3.68542e-07 -9.67522e-06)
(4.45983e-10 3.6868e-07 -9.67532e-06)
(1.99603e-10 3.68526e-07 -9.67512e-06)
(9.32296e-11 3.69522e-07 -9.67542e-06)
(2.17542e-10 3.69434e-07 -9.67552e-06)
(5.90543e-11 3.68581e-07 -9.67509e-06)
(-3.13714e-11 3.67547e-07 -9.67515e-06)
(2.85007e-11 3.6878e-07 -9.67526e-06)
(-2.78425e-11 3.68572e-07 -9.67516e-06)
(-3.33702e-10 3.68077e-07 -9.67528e-06)
(-2.20318e-10 3.69579e-07 -9.6756e-06)
(-1.38784e-10 3.68031e-07 -9.67531e-06)
(-3.69008e-10 3.69563e-07 -9.67573e-06)
(-4.22649e-10 3.68695e-07 -9.67514e-06)
(-8.11443e-10 3.68382e-07 -9.67521e-06)
(-1.25155e-09 3.68911e-07 -9.67535e-06)
(-1.70486e-09 3.69819e-07 -9.67565e-06)
(-5.25802e-09 3.68913e-07 -9.6746e-06)
(-3.14194e-08 3.66777e-07 -9.67323e-06)
(-2.13982e-07 3.49966e-07 -9.74772e-06)
(-1.50445e-06 3.00274e-07 -1.0353e-05)
(-1.31418e-05 3.06252e-07 -6.23362e-06)
(1.3185e-05 1.89799e-07 -6.22147e-06)
(1.51427e-06 1.86153e-07 -1.0354e-05)
(2.18182e-07 2.18474e-07 -9.74639e-06)
(3.23111e-08 2.29609e-07 -9.67087e-06)
(5.22968e-09 2.30627e-07 -9.67278e-06)
(1.8158e-09 2.3157e-07 -9.67353e-06)
(1.1108e-09 2.31746e-07 -9.67359e-06)
(7.97794e-10 2.31356e-07 -9.67357e-06)
(5.45114e-10 2.31462e-07 -9.67355e-06)
(4.30959e-10 2.31548e-07 -9.67352e-06)
(2.21579e-10 2.3142e-07 -9.67342e-06)
(1.3547e-10 2.31721e-07 -9.6739e-06)
(1.93256e-10 2.31937e-07 -9.67353e-06)
(-1.01791e-10 2.31525e-07 -9.67341e-06)
(-2.27281e-11 2.31292e-07 -9.67381e-06)
(1.60839e-10 2.31632e-07 -9.67346e-06)
(-8.93146e-11 2.31512e-07 -9.67347e-06)
(-1.98538e-10 2.3061e-07 -9.67346e-06)
(-2.81406e-10 2.3285e-07 -9.67379e-06)
(-2.62069e-10 2.3149e-07 -9.67379e-06)
(-2.43802e-10 2.31343e-07 -9.67379e-06)
(-4.38785e-10 2.31436e-07 -9.6735e-06)
(-7.93609e-10 2.3139e-07 -9.67353e-06)
(-1.178e-09 2.31641e-07 -9.67356e-06)
(-1.71387e-09 2.32124e-07 -9.67362e-06)
(-5.37617e-09 2.31466e-07 -9.67276e-06)
(-3.24373e-08 2.29902e-07 -9.6714e-06)
(-2.17978e-07 2.18191e-07 -9.74638e-06)
(-1.51423e-06 1.86051e-07 -1.03541e-05)
(-1.31855e-05 1.91052e-07 -6.22151e-06)
(1.32101e-05 1.17139e-07 -6.21432e-06)
(1.52034e-06 1.13954e-07 -1.03544e-05)
(2.20836e-07 1.34456e-07 -9.74536e-06)
(3.29277e-08 1.41911e-07 -9.66964e-06)
(5.35853e-09 1.43046e-07 -9.6719e-06)
(1.9472e-09 1.43218e-07 -9.67237e-06)
(1.0898e-09 1.43392e-07 -9.67237e-06)
(7.72919e-10 1.43175e-07 -9.67237e-06)
(5.5037e-10 1.43239e-07 -9.67234e-06)
(4.16087e-10 1.43297e-07 -9.67229e-06)
(1.95703e-10 1.43118e-07 -9.67227e-06)
(1.66891e-10 1.42742e-07 -9.67233e-06)
(2.17846e-10 1.43492e-07 -9.6722e-06)
(-4.2492e-11 1.43309e-07 -9.6722e-06)
(-1.62511e-11 1.43749e-07 -9.67255e-06)
(8.48882e-11 1.43358e-07 -9.67221e-06)
(-2.18031e-10 1.43305e-07 -9.67224e-06)
(-1.38589e-10 1.43203e-07 -9.67255e-06)
(-7.88498e-11 1.43912e-07 -9.67249e-06)
(-4.03909e-10 1.43818e-07 -9.67248e-06)
(-3.35259e-10 1.43568e-07 -9.67257e-06)
(-3.55195e-10 1.42963e-07 -9.67242e-06)
(-7.6673e-10 1.43212e-07 -9.67232e-06)
(-1.13203e-09 1.43304e-07 -9.67234e-06)
(-1.73936e-09 1.43582e-07 -9.67231e-06)
(-5.61966e-09 1.42906e-07 -9.6716e-06)
(-3.32225e-08 1.41724e-07 -9.67021e-06)
(-2.20568e-07 1.33661e-07 -9.74519e-06)
(-1.52007e-06 1.13825e-07 -1.03544e-05)
(-1.3211e-05 1.17435e-07 -6.21411e-06)
(1.32248e-05 6.98624e-08 -6.21e-06)
(1.52364e-06 6.7155e-08 -1.03545e-05)
(2.22551e-07 7.95444e-08 -9.74469e-06)
(3.35108e-08 8.4243e-08 -9.66886e-06)
(5.42135e-09 8.54628e-08 -9.67112e-06)
(1.87656e-09 8.48866e-08 -9.67174e-06)
(1.08549e-09 8.52077e-08 -9.6716e-06)
(7.55749e-10 8.50905e-08 -9.67161e-06)
(5.53676e-10 8.51305e-08 -9.67159e-06)
(3.93649e-10 8.51686e-08 -9.67153e-06)
(9.29609e-11 8.48314e-08 -9.67165e-06)
(1.98281e-10 8.52594e-08 -9.67176e-06)
(3.18809e-10 8.52694e-08 -9.67142e-06)
(-5.4885e-11 8.51824e-08 -9.67144e-06)
(-1.33617e-11 8.47149e-08 -9.67176e-06)
(9.16292e-11 8.51717e-08 -9.67144e-06)
(-1.26875e-10 8.52e-08 -9.67147e-06)
(-1.12267e-10 8.59041e-08 -9.67159e-06)
(-1.73848e-10 8.54437e-08 -9.67147e-06)
(-3.15257e-10 8.47511e-08 -9.6717e-06)
(-3.71694e-10 8.60742e-08 -9.6715e-06)
(-4.70264e-10 8.43311e-08 -9.67154e-06)
(-7.17767e-10 8.51235e-08 -9.67153e-06)
(-1.10458e-09 8.51125e-08 -9.6716e-06)
(-1.78935e-09 8.53025e-08 -9.67153e-06)
(-5.71256e-09 8.42674e-08 -9.67072e-06)
(-3.38009e-08 8.52509e-08 -9.66926e-06)
(-2.22357e-07 7.95199e-08 -9.74481e-06)
(-1.52338e-06 6.69879e-08 -1.03546e-05)
(-1.32256e-05 6.93665e-08 -6.20974e-06)
(1.32328e-05 3.58436e-08 -6.20755e-06)
(1.52553e-06 3.51613e-08 -1.03546e-05)
(2.23566e-07 4.17804e-08 -9.74433e-06)
(3.38061e-08 4.43287e-08 -9.66842e-06)
(5.43683e-09 4.40822e-08 -9.67079e-06)
(1.90167e-09 4.41091e-08 -9.67118e-06)
(1.11632e-09 4.48917e-08 -9.67118e-06)
(7.45481e-10 4.48381e-08 -9.67119e-06)
(5.55259e-10 4.48627e-08 -9.67116e-06)
(3.48903e-10 4.48823e-08 -9.67109e-06)
(1.98311e-10 4.41099e-08 -9.67111e-06)
(2.46707e-10 4.56687e-08 -9.6711e-06)
(2.12057e-10 4.49276e-08 -9.67101e-06)
(-1.5728e-10 4.49054e-08 -9.67101e-06)
(-1.65622e-11 4.49344e-08 -9.67149e-06)
(1.91241e-10 4.48007e-08 -9.67107e-06)
(-8.53443e-11 4.49109e-08 -9.67105e-06)
(-1.01825e-10 4.5176e-08 -9.67127e-06)
(-3.04905e-10 4.50049e-08 -9.67098e-06)
(-2.79419e-10 4.5013e-08 -9.67141e-06)
(-3.90529e-10 4.52704e-08 -9.67118e-06)
(-5.18562e-10 4.47316e-08 -9.67146e-06)
(-6.03418e-10 4.4872e-08 -9.67109e-06)
(-1.08967e-09 4.47446e-08 -9.67125e-06)
(-1.90241e-09 4.49533e-08 -9.6711e-06)
(-5.6283e-09 4.46877e-08 -9.67063e-06)
(-3.38548e-08 4.55009e-08 -9.66863e-06)
(-2.23534e-07 4.25462e-08 -9.74428e-06)
(-1.52537e-06 3.49272e-08 -1.03548e-05)
(-1.32335e-05 3.63755e-08 -6.20732e-06)
(1.32362e-05 1.1444e-08 -6.20646e-06)
(1.52651e-06 1.09239e-08 -1.03546e-05)
(2.24034e-07 1.29979e-08 -9.74418e-06)
(3.38179e-08 1.37486e-08 -9.66822e-06)
(5.37336e-09 1.32928e-08 -9.67059e-06)
(2.04683e-09 1.39665e-08 -9.67125e-06)
(1.22023e-09 1.39918e-08 -9.671e-06)
(7.40973e-10 1.3963e-08 -9.67101e-06)
(5.55029e-10 1.39761e-08 -9.67098e-06)
(2.39439e-10 1.39913e-08 -9.6709e-06)
(2.3758e-10 1.39795e-08 -9.67119e-06)
(3.54343e-10 1.42171e-08 -9.67109e-06)
(1.74896e-10 1.39545e-08 -9.67085e-06)
(-5.89183e-11 1.40025e-08 -9.67081e-06)
(-3.12903e-11 1.45326e-08 -9.67114e-06)
(9.47225e-11 1.36961e-08 -9.67103e-06)
(-6.01968e-11 1.39935e-08 -9.67085e-06)
(-9.62832e-11 1.40496e-08 -9.67093e-06)
(-2.05909e-10 1.4035e-08 -9.6708e-06)
(-2.62758e-10 1.47998e-08 -9.67093e-06)
(-4.12208e-10 1.41244e-08 -9.67085e-06)
(-5.32866e-10 1.44123e-08 -9.67118e-06)
(-7.04024e-10 1.39845e-08 -9.67089e-06)
(-1.08347e-09 1.36546e-08 -9.6712e-06)
(-1.80131e-09 1.40119e-08 -9.6709e-06)
(-5.59435e-09 1.438e-08 -9.67036e-06)
(-3.40286e-08 1.40948e-08 -9.66846e-06)
(-2.24126e-07 1.33073e-08 -9.74425e-06)
(-1.52625e-06 1.04343e-08 -1.0355e-05)
(-1.32368e-05 1.12849e-08 -6.20626e-06)
(1.32365e-05 -1.04228e-08 -6.20632e-06)
(1.52634e-06 -1.09138e-08 -1.03546e-05)
(2.24019e-07 -1.30052e-08 -9.74416e-06)
(3.38196e-08 -1.39595e-08 -9.66828e-06)
(5.48645e-09 -1.32728e-08 -9.67059e-06)
(2.03869e-09 -1.32329e-08 -9.671e-06)
(1.11327e-09 -1.39757e-08 -9.671e-06)
(7.37528e-10 -1.39932e-08 -9.671e-06)
(5.55843e-10 -1.39906e-08 -9.67098e-06)
(3.43321e-10 -1.39776e-08 -9.67091e-06)
(2.36408e-10 -1.32332e-08 -9.67094e-06)
(2.41587e-10 -1.41694e-08 -9.6711e-06)
(1.71775e-10 -1.4135e-08 -9.67091e-06)
(-4.61613e-11 -1.40009e-08 -9.67082e-06)
(-7.27774e-11 -1.43991e-08 -9.67112e-06)
(8.90647e-11 -1.47612e-08 -9.67092e-06)
(-1.92682e-11 -1.40125e-08 -9.67084e-06)
(-9.34228e-11 -1.40868e-08 -9.67094e-06)
(-1.59349e-10 -1.39838e-08 -9.67083e-06)
(-2.59399e-10 -1.36647e-08 -9.67105e-06)
(-4.58113e-10 -1.40072e-08 -9.6708e-06)
(-5.35437e-10 -1.44744e-08 -9.67119e-06)
(-7.44119e-10 -1.40061e-08 -9.67088e-06)
(-1.08584e-09 -1.4769e-08 -9.67109e-06)
(-1.76262e-09 -1.40165e-08 -9.6709e-06)
(-5.59787e-09 -1.44917e-08 -9.67037e-06)
(-3.40114e-08 -1.41739e-08 -9.66849e-06)
(-2.24286e-07 -1.28854e-08 -9.74409e-06)
(-1.5263e-06 -1.19916e-08 -1.03547e-05)
(-1.32364e-05 -1.13437e-08 -6.2063e-06)
(1.32331e-05 -3.63482e-08 -6.20778e-06)
(1.52546e-06 -3.51659e-08 -1.03546e-05)
(2.23526e-07 -4.18262e-08 -9.7443e-06)
(3.38132e-08 -4.47123e-08 -9.66863e-06)
(5.50474e-09 -4.40778e-08 -9.67079e-06)
(1.8963e-09 -4.46045e-08 -9.67132e-06)
(1.07367e-09 -4.48702e-08 -9.67119e-06)
(7.37337e-10 -4.48677e-08 -9.67119e-06)
(5.55346e-10 -4.48761e-08 -9.67117e-06)
(3.82853e-10 -4.48728e-08 -9.67112e-06)
(1.97472e-10 -4.45947e-08 -9.67125e-06)
(1.81227e-10 -4.56287e-08 -9.67113e-06)
(2.05589e-10 -4.52553e-08 -9.67126e-06)
(-1.12085e-10 -4.49068e-08 -9.67103e-06)
(-1.75538e-10 -4.47226e-08 -9.67142e-06)
(1.7165e-10 -4.48826e-08 -9.67135e-06)
(7.21794e-11 -4.49329e-08 -9.67103e-06)
(-8.98466e-11 -4.52115e-08 -9.67129e-06)
(-1.26935e-10 -4.48949e-08 -9.67104e-06)
(-2.66441e-10 -4.47578e-08 -9.67112e-06)
(-5.66035e-10 -4.50021e-08 -9.671e-06)
(-5.31858e-10 -4.47899e-08 -9.67148e-06)
(-7.58412e-10 -4.48796e-08 -9.67107e-06)
(-1.09546e-09 -4.48691e-08 -9.67153e-06)
(-1.75159e-09 -4.49205e-08 -9.6711e-06)
(-5.63837e-09 -4.4796e-08 -9.67065e-06)
(-3.378e-08 -4.55361e-08 -9.66869e-06)
(-2.24016e-07 -4.17053e-08 -9.7442e-06)
(-1.52553e-06 -3.51655e-08 -1.03547e-05)
(-1.32325e-05 -3.64085e-08 -6.20742e-06)
(1.3225e-05 -7.01243e-08 -6.20984e-06)
(1.52361e-06 -6.71431e-08 -1.03545e-05)
(2.22464e-07 -7.9676e-08 -9.74474e-06)
(3.3537e-08 -8.50738e-08 -9.66896e-06)
(5.50842e-09 -8.54547e-08 -9.67111e-06)
(1.87808e-09 -8.51109e-08 -9.67162e-06)
(1.06906e-09 -8.51297e-08 -9.67163e-06)
(7.39395e-10 -8.51156e-08 -9.67162e-06)
(5.54491e-10 -8.51378e-08 -9.6716e-06)
(3.94775e-10 -8.5132e-08 -9.67156e-06)
(9.08804e-11 -8.50543e-08 -9.67155e-06)
(1.20991e-10 -8.51891e-08 -9.67177e-06)
(3.0837e-10 -8.59824e-08 -9.67158e-06)
(5.46943e-11 -8.51873e-08 -9.67146e-06)
(-6.33089e-11 -8.43004e-08 -9.67153e-06)
(4.84218e-11 -8.43761e-08 -9.67153e-06)
(-7.84919e-11 -8.52502e-08 -9.67145e-06)
(-8.56078e-11 -8.59356e-08 -9.67162e-06)
(-7.74802e-11 -8.51649e-08 -9.67148e-06)
(-2.80334e-10 -8.50972e-08 -9.67149e-06)
(-4.62271e-10 -8.53892e-08 -9.67145e-06)
(-5.1246e-10 -8.4388e-08 -9.67157e-06)
(-7.61035e-10 -8.51208e-08 -9.67151e-06)
(-1.09838e-09 -8.43455e-08 -9.67168e-06)
(-1.75316e-09 -8.51965e-08 -9.67155e-06)
(-5.73112e-09 -8.43722e-08 -9.67074e-06)
(-3.35923e-08 -8.52335e-08 -9.6693e-06)
(-2.22577e-07 -7.94439e-08 -9.74453e-06)
(-1.5236e-06 -6.60609e-08 -1.03546e-05)
(-1.32249e-05 -6.93767e-08 -6.2098e-06)
(1.32102e-05 -1.17261e-07 -6.21423e-06)
(1.52032e-06 -1.13934e-07 -1.03544e-05)
(2.2065e-07 -1.34769e-07 -9.74557e-06)
(3.29942e-08 -1.41962e-07 -9.66993e-06)
(5.54069e-09 -1.43e-07 -9.6719e-06)
(1.95994e-09 -1.43328e-07 -9.67235e-06)
(1.08375e-09 -1.43206e-07 -9.67241e-06)
(7.41955e-10 -1.43189e-07 -9.67239e-06)
(5.54517e-10 -1.43232e-07 -9.67236e-06)
(3.98133e-10 -1.4321e-07 -9.67233e-06)
(1.89791e-10 -1.43241e-07 -9.67226e-06)
(9.79027e-12 -1.42576e-07 -9.67226e-06)
(2.01579e-10 -1.43297e-07 -9.67255e-06)
(2.07339e-10 -1.43302e-07 -9.67223e-06)
(-1.47868e-11 -1.42906e-07 -9.67245e-06)
(-9.15843e-12 -1.42942e-07 -9.67245e-06)
(-2.20027e-10 -1.43436e-07 -9.67224e-06)
(-7.47044e-11 -1.43227e-07 -9.67259e-06)
(2.67416e-11 -1.43239e-07 -9.67225e-06)
(-3.07014e-10 -1.4322e-07 -9.67226e-06)
(-4.30418e-10 -1.43712e-07 -9.67233e-06)
(-4.83854e-10 -1.43047e-07 -9.67245e-06)
(-7.56099e-10 -1.43215e-07 -9.6723e-06)
(-1.10892e-09 -1.42887e-07 -9.67257e-06)
(-1.76074e-09 -1.43347e-07 -9.67234e-06)
(-5.65183e-09 -1.43005e-07 -9.67165e-06)
(-3.31127e-08 -1.41605e-07 -9.67019e-06)
(-2.20676e-07 -1.34328e-07 -9.74518e-06)
(-1.52014e-06 -1.13426e-07 -1.03547e-05)
(-1.32106e-05 -1.17446e-07 -6.21415e-06)
(1.3185e-05 -1.89858e-07 -6.22146e-06)
(1.51421e-06 -1.86133e-07 -1.0354e-05)
(2.18124e-07 -2.19165e-07 -9.74645e-06)
(3.24129e-08 -2.28918e-07 -9.67087e-06)
(5.29988e-09 -2.30517e-07 -9.67278e-06)
(1.84354e-09 -2.31637e-07 -9.67356e-06)
(1.11031e-09 -2.31365e-07 -9.67362e-06)
(7.42983e-10 -2.31351e-07 -9.6736e-06)
(5.55937e-10 -2.31429e-07 -9.67358e-06)
(3.955e-10 -2.31374e-07 -9.67354e-06)
(2.13265e-10 -2.3152e-07 -9.67348e-06)
(1.14747e-10 -2.31343e-07 -9.67362e-06)
(1.65381e-10 -2.30761e-07 -9.67348e-06)
(1.22251e-10 -2.31522e-07 -9.67346e-06)
(9.63255e-12 -2.31299e-07 -9.67354e-06)
(-4.44255e-11 -2.31316e-07 -9.67353e-06)
(-1.22037e-10 -2.3179e-07 -9.67356e-06)
(-5.26666e-11 -2.30626e-07 -9.67352e-06)
(-8.33949e-11 -2.314e-07 -9.67347e-06)
(-3.56128e-10 -2.31424e-07 -9.67347e-06)
(-4.33897e-10 -2.3235e-07 -9.67383e-06)
(-4.3804e-10 -2.3157e-07 -9.67351e-06)
(-7.426e-10 -2.31389e-07 -9.67353e-06)
(-1.12943e-09 -2.31239e-07 -9.67365e-06)
(-1.77632e-09 -2.31625e-07 -9.67355e-06)
(-5.42169e-09 -2.31553e-07 -9.67283e-06)
(-3.23483e-08 -2.29532e-07 -9.67119e-06)
(-2.18042e-07 -2.18279e-07 -9.74622e-06)
(-1.51426e-06 -1.85851e-07 -1.03542e-05)
(-1.31853e-05 -1.9108e-07 -6.22153e-06)
(1.31415e-05 -3.05522e-07 -6.23384e-06)
(1.50424e-06 -3.0035e-07 -1.0353e-05)
(2.14294e-07 -3.49679e-07 -9.74793e-06)
(3.15321e-08 -3.65912e-07 -9.67274e-06)
(5.09306e-09 -3.68114e-07 -9.67465e-06)
(1.81075e-09 -3.68852e-07 -9.67529e-06)
(1.15368e-09 -3.68332e-07 -9.6753e-06)
(7.40532e-10 -3.68325e-07 -9.67528e-06)
(5.58979e-10 -3.68461e-07 -9.67525e-06)
(3.89115e-10 -3.68348e-07 -9.67522e-06)
(1.98235e-10 -3.68645e-07 -9.6752e-06)
(1.4982e-10 -3.68738e-07 -9.67522e-06)
(1.58947e-10 -3.68346e-07 -9.67533e-06)
(1.0196e-10 -3.68596e-07 -9.67515e-06)
(3.15537e-11 -3.68381e-07 -9.67518e-06)
(-8.31563e-11 -3.68388e-07 -9.67516e-06)
(-8.52308e-11 -3.69142e-07 -9.67547e-06)
(-1.59631e-11 -3.68107e-07 -9.67536e-06)
(-1.24124e-10 -3.68384e-07 -9.67518e-06)
(-4.43706e-10 -3.68445e-07 -9.67513e-06)
(-4.60263e-10 -3.70237e-07 -9.67559e-06)
(-3.52821e-10 -3.68907e-07 -9.67514e-06)
(-7.16628e-10 -3.68361e-07 -9.67522e-06)
(-1.16208e-09 -3.68288e-07 -9.67528e-06)
(-1.80885e-09 -3.68788e-07 -9.67527e-06)
(-5.30966e-09 -3.68981e-07 -9.6747e-06)
(-3.13032e-08 -3.65939e-07 -9.67315e-06)
(-2.14052e-07 -3.49641e-07 -9.7476e-06)
(-1.50448e-06 -3.00127e-07 -1.03531e-05)
(-1.31417e-05 -3.06309e-07 -6.23366e-06)
(1.30672e-05 -4.87502e-07 -6.25314e-06)
(1.48855e-06 -4.83251e-07 -1.03505e-05)
(2.08728e-07 -5.56525e-07 -9.74918e-06)
(3.00389e-08 -5.80682e-07 -9.67464e-06)
(4.86856e-09 -5.83502e-07 -9.67654e-06)
(1.81622e-09 -5.84278e-07 -9.67745e-06)
(1.21686e-09 -5.83347e-07 -9.6773e-06)
(7.33039e-10 -5.83354e-07 -9.67727e-06)
(5.63465e-10 -5.83593e-07 -9.67724e-06)
(3.79809e-10 -5.8337e-07 -9.67721e-06)
(1.59566e-10 -5.83908e-07 -9.67735e-06)
(1.59061e-10 -5.84231e-07 -9.67736e-06)
(1.64413e-10 -5.83759e-07 -9.67725e-06)
(1.06978e-10 -5.83767e-07 -9.67716e-06)
(5.83344e-11 -5.83472e-07 -9.67719e-06)
(-1.46126e-10 -5.83469e-07 -9.67715e-06)
(-7.01748e-11 -5.84823e-07 -9.67731e-06)
(5.10753e-11 -5.83343e-07 -9.67722e-06)
(-1.40465e-10 -5.83412e-07 -9.6772e-06)
(-6.13826e-10 -5.83511e-07 -9.67711e-06)
(-5.06558e-10 -5.85116e-07 -9.67754e-06)
(-1.81713e-10 -5.84444e-07 -9.67731e-06)
(-6.74059e-10 -5.83375e-07 -9.67723e-06)
(-1.20969e-09 -5.83346e-07 -9.67727e-06)
(-1.87132e-09 -5.8414e-07 -9.67741e-06)
(-4.98538e-09 -5.84715e-07 -9.67655e-06)
(-2.98567e-08 -5.80139e-07 -9.67494e-06)
(-2.08617e-07 -5.57279e-07 -9.74912e-06)
(-1.48869e-06 -4.83033e-07 -1.03506e-05)
(-1.30671e-05 -4.88227e-07 -6.25326e-06)
(1.29425e-05 -7.75417e-07 -6.28468e-06)
(1.46413e-06 -7.78049e-07 -1.0346e-05)
(2.01066e-07 -8.86672e-07 -9.75144e-06)
(2.81734e-08 -9.19531e-07 -9.67746e-06)
(4.61313e-09 -9.22928e-07 -9.67927e-06)
(1.84746e-09 -9.24082e-07 -9.68058e-06)
(1.30282e-09 -9.2242e-07 -9.68006e-06)
(7.22276e-10 -9.2246e-07 -9.68003e-06)
(5.67313e-10 -9.22876e-07 -9.68007e-06)
(3.62538e-10 -9.22455e-07 -9.67997e-06)
(1.02702e-10 -9.2343e-07 -9.6804e-06)
(1.61257e-10 -9.24056e-07 -9.6806e-06)
(1.73188e-10 -9.23255e-07 -9.68016e-06)
(1.20861e-10 -9.23094e-07 -9.67996e-06)
(9.41627e-11 -9.22624e-07 -9.67997e-06)
(-2.65053e-10 -9.22582e-07 -9.67992e-06)
(-6.2558e-11 -9.23139e-07 -9.68009e-06)
(1.79666e-10 -9.22517e-07 -9.67992e-06)
(-1.4421e-10 -9.22502e-07 -9.67998e-06)
(-6.29144e-10 -9.2265e-07 -9.67986e-06)
(-5.65777e-10 -9.2279e-07 -9.68022e-06)
(-1.60643e-10 -9.24402e-07 -9.68062e-06)
(-6.15723e-10 -9.22449e-07 -9.68e-06)
(-1.27323e-09 -9.22456e-07 -9.68004e-06)
(-2.00514e-09 -9.23804e-07 -9.68054e-06)
(-4.73053e-09 -9.23094e-07 -9.67933e-06)
(-2.79282e-08 -9.19809e-07 -9.67767e-06)
(-2.00987e-07 -8.86844e-07 -9.75111e-06)
(-1.46424e-06 -7.77797e-07 -1.0346e-05)
(-1.29421e-05 -7.7642e-07 -6.28516e-06)
(1.27413e-05 -1.23162e-06 -6.34018e-06)
(1.42845e-06 -1.25409e-06 -1.03435e-05)
(1.90806e-07 -1.41022e-06 -9.75949e-06)
(2.57809e-08 -1.45478e-06 -9.687e-06)
(4.32132e-09 -1.45865e-06 -9.6885e-06)
(1.90722e-09 -1.46056e-06 -9.68983e-06)
(1.42221e-09 -1.45768e-06 -9.68925e-06)
(7.21183e-10 -1.4578e-06 -9.68927e-06)
(5.62872e-10 -1.45852e-06 -9.68959e-06)
(3.06982e-10 -1.45774e-06 -9.68917e-06)
(1.96765e-11 -1.45941e-06 -9.68931e-06)
(1.7899e-10 -1.46054e-06 -9.68987e-06)
(1.93129e-10 -1.45916e-06 -9.68971e-06)
(1.35546e-10 -1.45879e-06 -9.68931e-06)
(1.43518e-10 -1.458e-06 -9.68919e-06)
(-1.69668e-10 -1.45791e-06 -9.68914e-06)
(-5.75285e-11 -1.45791e-06 -9.68922e-06)
(9.95034e-11 -1.45787e-06 -9.68913e-06)
(-1.36741e-10 -1.45781e-06 -9.68917e-06)
(-5.0596e-10 -1.45806e-06 -9.68912e-06)
(-6.45533e-10 -1.45856e-06 -9.68992e-06)
(-2.7357e-10 -1.46119e-06 -9.69018e-06)
(-5.32405e-10 -1.45772e-06 -9.68917e-06)
(-1.35236e-09 -1.45777e-06 -9.68928e-06)
(-1.95776e-09 -1.46006e-06 -9.68975e-06)
(-4.49438e-09 -1.45788e-06 -9.68835e-06)
(-2.56759e-08 -1.45364e-06 -9.6867e-06)
(-1.90667e-07 -1.41007e-06 -9.75913e-06)
(-1.42858e-06 -1.25376e-06 -1.03434e-05)
(-1.27407e-05 -1.23316e-06 -6.3403e-06)
(1.24369e-05 -1.95387e-06 -6.45052e-06)
(1.38045e-06 -2.02014e-06 -1.03656e-05)
(1.7743e-07 -2.23838e-06 -9.79841e-06)
(2.27603e-08 -2.29816e-06 -9.72836e-06)
(3.99283e-09 -2.30221e-06 -9.72936e-06)
(2.00031e-09 -2.30303e-06 -9.73106e-06)
(1.60516e-09 -2.30057e-06 -9.73006e-06)
(7.63064e-10 -2.30085e-06 -9.73029e-06)
(5.3142e-10 -2.3021e-06 -9.73107e-06)
(1.33184e-10 -2.30067e-06 -9.72997e-06)
(-1.38704e-10 -2.30101e-06 -9.72983e-06)
(2.48419e-10 -2.30287e-06 -9.72997e-06)
(2.83207e-10 -2.30297e-06 -9.73011e-06)
(1.58296e-10 -2.30241e-06 -9.73056e-06)
(1.9744e-10 -2.3011e-06 -9.73002e-06)
(-1.32558e-10 -2.30094e-06 -9.72998e-06)