/*--------------------------------*- C++ -*----------------------------------*\
| =========                 |                                                 |
| \\      /  F ield         | OpenFOAM: The Open Source CFD Toolbox           |
|  \\    /   O peration     | Version:  2106                                  |
|   \\  /    A nd           | Website:  www.openfoam.com                      |
|    \\/     M anipulation  |                                                 |
\*---------------------------------------------------------------------------*/
FoamFile
{
    version     2.0;
    format      ascii;
    arch        "LSB;label=32;scalar=64";
    class       volSymmTensorField;
    location    "193";
    object      epsilon;
}
// * * * * * * * * * * * * * * * * * * * * * * * * * * * * * * * * * * * * * //

dimensions      [0 0 0 0 0 0 0];

internalField   nonuniform List<symmTensor> 
9000
(
(-0.0856888 -0.00027219 0.0482832 -0.147299 0.0615254 -0.0248567)
(-0.0168076 0.00053686 0.00941843 -0.156622 0.0652344 -0.0693954)
(-0.00193546 0.000336555 0.00257247 -0.166572 0.0692775 -0.0590876)
(-0.000322626 5.11314e-05 0.000445633 -0.168194 0.0701705 -0.0569497)
(-5.52934e-05 -7.49093e-06 3.25436e-05 -0.16828 0.0701999 -0.0569522)
(-4.15906e-06 -1.82209e-06 1.35561e-05 -0.168111 0.0699971 -0.0571972)
(-1.82976e-06 7.19488e-08 1.54336e-05 -0.168259 0.0701677 -0.0570256)
(3.78652e-07 -5.72345e-06 -3.24508e-06 -0.168105 0.0699975 -0.057196)
(-3.94508e-07 6.34642e-06 2.4307e-05 -0.168107 0.0699975 -0.0571938)
(-5.59121e-06 6.67912e-06 -1.2898e-05 -0.168273 0.0701802 -0.0569929)
(2.57703e-06 -5.72507e-06 -4.67695e-05 -0.168173 0.0700716 -0.057081)
(6.64065e-06 -6.9687e-07 3.54409e-05 -0.168015 0.069896 -0.0572622)
(-4.18986e-06 4.87054e-06 4.81214e-05 -0.16827 0.0701733 -0.0570049)
(-3.01085e-06 9.11052e-07 -3.11212e-05 -0.168277 0.0701754 -0.0570163)
(3.47061e-06 9.46226e-07 4.16125e-06 -0.168181 0.070078 -0.0570718)
(-2.6711e-06 -1.36322e-06 2.9493e-05 -0.16828 0.070184 -0.0569852)
(-1.56677e-06 4.49177e-07 -3.46503e-05 -0.168276 0.0701751 -0.0570187)
(3.85858e-07 8.42617e-07 1.82205e-06 -0.168182 0.0700791 -0.0570693)
(-1.95312e-06 -6.50869e-06 -1.98064e-05 -0.168272 0.0701782 -0.0569934)
(4.64253e-06 -6.2705e-06 -1.9901e-05 -0.168007 0.0698925 -0.0572749)
(2.41881e-06 5.57592e-06 4.39526e-05 -0.168106 0.0699972 -0.0571913)
(-5.43564e-06 6.24898e-06 9.18455e-06 -0.168273 0.0701749 -0.0570067)
(-2.82232e-06 -5.87424e-06 -2.54467e-05 -0.168271 0.0701792 -0.0570022)
(4.68346e-07 -7.808e-07 -1.76503e-05 -0.168112 0.0699997 -0.057191)
(-7.54994e-06 1.63846e-06 -1.4481e-05 -0.168259 0.0701663 -0.0570286)
(-5.44515e-05 1.89084e-06 -8.243e-05 -0.168124 0.070025 -0.0571268)
(-0.000316586 -4.62514e-05 -0.000435406 -0.168083 0.0700558 -0.05705)
(-0.00193571 -0.000336584 -0.00253598 -0.166567 0.0692664 -0.0591184)
(-0.0168103 -0.000535942 -0.00941431 -0.156622 0.0652347 -0.0693935)
(-0.0856891 0.000272093 -0.0482843 -0.147299 0.0615232 -0.0248581)
(-0.0724414 -2.24739e-05 0.0465909 -0.0982065 0.0683187 -0.128806)
(-0.0164286 0.000680318 0.00805737 -0.103305 0.0718709 -0.174938)
(-0.00180824 0.000433315 0.00154216 -0.109368 0.0763762 -0.171234)
(-0.000207724 7.14801e-05 0.000222429 -0.11054 0.0775305 -0.170529)
(-2.76972e-05 -5.85309e-06 2.24025e-05 -0.110566 0.077567 -0.17057)
(-4.40901e-06 -3.55343e-06 2.13704e-05 -0.110357 0.0775099 -0.170569)
(-1.78862e-06 6.85709e-07 1.65909e-05 -0.110534 0.0775132 -0.170593)
(-1.16441e-06 -1.14422e-06 -1.00416e-05 -0.110333 0.0775115 -0.170567)
(-6.46492e-07 1.94333e-06 2.75795e-05 -0.110337 0.0775099 -0.170566)
(-9.22239e-07 7.07303e-06 2.70838e-05 -0.110546 0.077531 -0.170585)
(-9.61783e-08 3.23902e-06 -1.55729e-05 -0.11046 0.0777079 -0.170545)
(2.46332e-07 -6.00107e-06 7.76298e-07 -0.110259 0.0776961 -0.17052)
(-7.09057e-07 -6.95936e-06 1.99822e-05 -0.11055 0.0775193 -0.170584)
(-2.79722e-07 6.26044e-06 1.05338e-06 -0.11052 0.0773744 -0.170569)
(3.1082e-07 3.72875e-06 -2.87038e-07 -0.11047 0.0777188 -0.170547)
(-3.69821e-07 -8.82648e-06 -1.3156e-06 -0.110551 0.0775359 -0.170584)
(-1.35067e-08 5.1816e-06 3.66654e-07 -0.110519 0.0773746 -0.17057)
(9.96513e-08 3.68324e-06 -2.66666e-07 -0.110472 0.0777204 -0.170547)
(-5.73105e-07 -2.15839e-06 -2.12399e-05 -0.110541 0.0775268 -0.170583)
(-3.73337e-07 -1.88625e-06 -2.35257e-05 -0.110251 0.0776937 -0.170524)
(-4.50412e-07 -4.10876e-06 1.21489e-05 -0.110331 0.0775092 -0.170562)
(-8.68846e-07 1.9505e-06 1.18982e-05 -0.110557 0.0775236 -0.17059)
(-9.60669e-07 -1.02136e-06 -3.04695e-05 -0.110544 0.0775318 -0.17059)
(-1.29366e-06 -1.6736e-06 -1.45407e-05 -0.110346 0.0775127 -0.170568)
(-4.97813e-06 3.32614e-06 -1.94097e-05 -0.110546 0.0775118 -0.170592)
(-2.79383e-05 9.43249e-06 -4.08588e-05 -0.110366 0.077555 -0.170542)
(-0.000207418 -7.40019e-05 -0.000201464 -0.110442 0.0776985 -0.170487)
(-0.00180831 -0.000437856 -0.00154491 -0.109332 0.0762101 -0.171217)
(-0.0164288 -0.000676764 -0.00805854 -0.103305 0.0718705 -0.174935)
(-0.0724407 2.23127e-05 -0.0465918 -0.0982108 0.0683134 -0.128806)
(-0.0763345 0.00116456 0.0468477 -0.057634 0.0582989 -0.153297)
(-0.0165512 0.000869378 0.00789515 -0.0602814 0.0607696 -0.201963)
(-0.00181019 0.000520476 0.00136835 -0.0634437 0.0648441 -0.199911)
(-0.00018792 9.87659e-05 0.000162071 -0.0641823 0.0660303 -0.199595)
(-1.90107e-05 -3.82663e-07 4.53795e-05 -0.0641863 0.0660773 -0.19965)
(-4.43448e-06 -4.60221e-06 2.35219e-05 -0.0640871 0.0661959 -0.1996)
(-1.49094e-06 2.43616e-06 1.60564e-05 -0.0641644 0.0660266 -0.199658)
(-2.03605e-06 4.00738e-06 1.50846e-05 -0.0640806 0.0662903 -0.19962)
(-1.48094e-06 -3.01019e-06 1.07204e-06 -0.0640906 0.0662882 -0.19962)
(1.13648e-06 -2.49881e-06 2.07666e-06 -0.0641635 0.0660442 -0.199658)
(-3.86969e-07 3.21943e-06 1.14099e-05 -0.064157 0.0660197 -0.199646)
(-2.5523e-06 -2.77292e-06 7.87053e-07 -0.0640809 0.0662716 -0.199604)
(1.30418e-07 -3.52186e-06 -2.06104e-05 -0.0641469 0.0659415 -0.199631)
(1.43496e-06 3.55067e-06 2.14941e-07 -0.0640942 0.0660415 -0.199638)
(-7.14897e-07 5.4681e-07 1.26551e-05 -0.06416 0.0660319 -0.19965)
(-5.4223e-08 -9.50694e-07 -1.53633e-05 -0.0641658 0.066049 -0.199659)
(1.02244e-06 5.48862e-07 1.37388e-06 -0.0640939 0.066042 -0.199639)
(4.98696e-07 4.05208e-08 1.36774e-05 -0.0641613 0.0660332 -0.199649)
(-1.46547e-07 2.35359e-06 5.64432e-06 -0.06416 0.06604 -0.199656)
(-2.56095e-06 3.0255e-06 2.85011e-06 -0.0640748 0.0662712 -0.199606)
(-2.06909e-06 -5.75633e-06 -1.42336e-05 -0.0640781 0.0662875 -0.199616)
(1.17527e-06 -2.54614e-06 -1.4478e-05 -0.0641546 0.065945 -0.199639)
(-2.25304e-08 5.22448e-06 -5.10839e-06 -0.0641611 0.0660461 -0.199661)
(-2.2003e-06 -3.94961e-06 -1.30432e-05 -0.0640974 0.0662895 -0.199621)
(-3.84325e-06 3.87789e-06 -2.05116e-05 -0.0641565 0.0659335 -0.199635)
(-2.03092e-05 4.11002e-06 -3.64627e-05 -0.0641108 0.0663292 -0.199606)
(-0.000189596 -0.000103187 -0.000180403 -0.0641652 0.065998 -0.199576)
(-0.00180924 -0.000519583 -0.00137222 -0.0633694 0.0648306 -0.199886)
(-0.0165506 -0.000869244 -0.00788319 -0.0602799 0.0607695 -0.201959)
(-0.0763328 -0.00116478 -0.0468484 -0.0576439 0.0582924 -0.153295)
(-0.0819055 0.00181098 0.0484645 -0.0352203 0.0410111 -0.154214)
(-0.0171083 0.000878661 0.00816694 -0.0372794 0.0423604 -0.205399)
(-0.00187186 0.000495512 0.00148775 -0.0391615 0.0457071 -0.203494)
(-0.000207864 0.00010091 0.000182207 -0.0396857 0.0465898 -0.203199)
(-2.07614e-05 -1.06242e-07 3.00677e-05 -0.039697 0.0466392 -0.203258)
(-3.44523e-06 -5.77187e-06 2.351e-05 -0.0396415 0.0465422 -0.203239)
(-1.72217e-06 1.30368e-06 2.51725e-05 -0.0396678 0.046532 -0.203249)
(-1.99867e-06 9.43749e-07 1.07345e-05 -0.0396823 0.0466105 -0.203273)
(-8.85918e-07 3.61568e-07 5.1188e-06 -0.0396772 0.0465413 -0.203254)
(6.16055e-07 6.99703e-07 5.33379e-06 -0.0396735 0.0466137 -0.203269)
(-9.77984e-07 -1.39021e-06 6.70985e-06 -0.0396711 0.0466002 -0.203266)
(-1.83545e-06 8.21515e-07 -9.01582e-06 -0.0396806 0.0465999 -0.203268)
(6.85925e-07 5.30514e-06 -2.76647e-06 -0.0396315 0.0466076 -0.203252)
(7.7376e-07 5.6183e-07 1.01564e-05 -0.0396486 0.0467729 -0.203271)
(-8.12297e-07 -3.38696e-06 -5.76484e-07 -0.0396668 0.0466115 -0.20327)
(1.8208e-07 4.02044e-06 -1.8632e-06 -0.0396749 0.046619 -0.203271)
(6.51285e-07 -4.90642e-07 1.10764e-06 -0.0396494 0.0467734 -0.203273)
(1.66743e-07 -4.26786e-06 4.53504e-07 -0.0396674 0.0466121 -0.203269)
(-2.31252e-07 -1.4239e-06 1.11913e-06 -0.0396718 0.046611 -0.203268)
(-2.21303e-06 -3.5533e-07 -1.33738e-06 -0.0396772 0.0466007 -0.20327)
(-1.48472e-06 9.72001e-07 -1.93509e-05 -0.0396814 0.0466087 -0.20327)
(1.12859e-06 1.19329e-06 -9.79587e-06 -0.0396397 0.0466102 -0.203256)
(-6.34559e-07 -1.48273e-06 1.70337e-06 -0.0396701 0.0466169 -0.203271)
(-2.16103e-06 -3.53139e-06 -2.29298e-05 -0.0396813 0.0465408 -0.203253)
(-2.9811e-06 4.68324e-06 -2.06675e-05 -0.0396328 0.0465324 -0.203232)
(-2.16063e-05 -5.89406e-07 -2.56374e-05 -0.0397057 0.0466386 -0.203258)
(-0.000209211 -9.82344e-05 -0.000183254 -0.0396751 0.0465689 -0.203192)
(-0.00187157 -0.000493138 -0.00149002 -0.0391357 0.0458543 -0.203491)
(-0.0171075 -0.000883584 -0.00816778 -0.0372784 0.0423605 -0.205395)
(-0.0819123 -0.00181114 -0.0484644 -0.0352125 0.0409403 -0.154192)
(-0.0860869 0.00177662 0.0504626 -0.022095 0.0264568 -0.152218)
(-0.0177922 0.00076945 0.00858003 -0.023612 0.0268391 -0.205763)
(-0.00195517 0.000412636 0.00165861 -0.0249695 0.0294599 -0.203785)
(-0.000235638 8.67097e-05 0.000202793 -0.0253255 0.0300312 -0.203448)
(-2.59701e-05 6.02284e-06 2.97997e-05 -0.0253294 0.0300231 -0.203497)
(-3.21562e-06 -3.69045e-06 1.36325e-05 -0.0252874 0.0301656 -0.203527)
(-1.50514e-06 -2.96725e-06 2.38162e-05 -0.0252901 0.0299957 -0.203496)
(-1.75375e-06 2.11605e-06 9.24477e-06 -0.0253236 0.0300677 -0.203531)
(-3.42759e-07 -1.06005e-08 6.28661e-06 -0.0252984 0.0300662 -0.203521)
(2.67089e-08 -2.02182e-06 1.49603e-05 -0.025326 0.0300604 -0.203524)
(-1.13373e-06 -1.33711e-06 4.8042e-06 -0.0253098 0.0299991 -0.203509)
(-1.15146e-06 4.16185e-06 1.03282e-07 -0.0253281 0.0300616 -0.203527)
(3.68254e-07 3.9204e-06 -1.97177e-06 -0.0253154 0.0301556 -0.203532)
(4.598e-07 -1.74509e-06 1.00806e-06 -0.0253398 0.0300805 -0.20353)
(-6.47873e-07 -2.02297e-06 6.37835e-07 -0.0253177 0.0300623 -0.203528)
(9.64721e-08 2.34489e-06 -2.60891e-06 -0.0253284 0.0300648 -0.203526)
(5.80837e-07 -2.1466e-07 7.09225e-07 -0.0253404 0.0300808 -0.203532)
(-1.06143e-07 -2.9405e-06 1.33979e-06 -0.0253179 0.0300627 -0.203528)
(-4.66471e-07 -1.39776e-06 -6.24298e-07 -0.0253264 0.0300587 -0.203524)
(-1.37671e-06 -9.87115e-08 -2.69229e-06 -0.0253228 0.030063 -0.203531)
(-8.77884e-07 2.56893e-06 -7.50278e-06 -0.0253264 0.030066 -0.20353)
(9.10248e-08 1.29337e-06 -7.85224e-06 -0.0253035 0.0301029 -0.20352)
(-1.16912e-06 -1.66956e-06 -1.73875e-05 -0.0253194 0.0300638 -0.203527)
(-1.31604e-06 -4.89399e-07 -2.22974e-05 -0.025305 0.0300649 -0.203517)
(-2.86777e-06 2.50071e-06 -1.13524e-05 -0.0252831 0.0300945 -0.203502)
(-2.65935e-05 -5.66503e-06 -2.7631e-05 -0.0253426 0.0300851 -0.203513)
(-0.00023647 -8.65924e-05 -0.000203943 -0.0253253 0.0300185 -0.203443)
(-0.00195517 -0.000410342 -0.00166013 -0.0249863 0.029471 -0.203785)
(-0.0177909 -0.000770794 -0.0085897 -0.0236118 0.0268386 -0.20576)
(-0.0860966 -0.0017757 -0.0504537 -0.0220655 0.0264531 -0.1522)
(-0.0887727 0.00139786 0.0522107 -0.013976 0.0165181 -0.151197)
(-0.018389 0.00060837 0.00898061 -0.0149066 0.0164223 -0.206587)
(-0.00203655 0.000320151 0.00180938 -0.0159647 0.0182289 -0.204528)
(-0.000260326 7.36468e-05 0.000225614 -0.0162194 0.0187614 -0.204201)
(-3.12267e-05 8.06814e-06 3.83094e-05 -0.0162103 0.0188026 -0.204262)
(-3.80574e-06 -1.72348e-06 2.05735e-05 -0.0162291 0.0188813 -0.204297)
(-1.23375e-06 -3.86606e-06 1.57804e-05 -0.0161854 0.0188102 -0.204269)
(-1.4544e-06 1.80233e-06 1.67196e-05 -0.0162225 0.0187983 -0.204288)
(-7.98041e-07 -1.4049e-06 6.71743e-06 -0.0162159 0.0188691 -0.204297)
(-2.32596e-07 -2.73613e-06 -9.18231e-07 -0.0162166 0.0187452 -0.204271)
(-6.1315e-07 -8.36803e-07 4.01138e-06 -0.0161958 0.0187881 -0.204274)
(-6.82415e-07 2.92078e-07 7.84843e-06 -0.0162193 0.0187468 -0.20427)
(1.80346e-07 3.72797e-06 -9.37416e-07 -0.0162359 0.0187551 -0.20427)
(1.55153e-07 5.45982e-07 1.39078e-06 -0.0162334 0.0188094 -0.204287)
(-6.04491e-07 -2.42974e-06 6.19761e-07 -0.0162202 0.0187949 -0.204288)
(1.05892e-07 1.60969e-06 -1.94017e-06 -0.0162189 0.0187488 -0.204273)
(3.94026e-07 9.24441e-07 1.92699e-07 -0.0162335 0.0188096 -0.204289)
(-2.69607e-07 -3.35749e-06 8.85996e-07 -0.0162203 0.0187952 -0.204287)
(-4.53927e-07 -1.0889e-06 -1.28376e-06 -0.0162194 0.0187435 -0.20427)
(-1.11663e-06 1.02842e-06 -3.35223e-06 -0.0162274 0.0187959 -0.204284)
(-5.73729e-07 2.50082e-06 -1.47957e-05 -0.0162313 0.0187965 -0.204284)
(2.01727e-07 1.15076e-06 -6.96424e-06 -0.0162131 0.0188029 -0.204278)
(-1.49881e-06 -6.38441e-07 -1.04646e-06 -0.0162209 0.018795 -0.204286)
(-1.50421e-06 9.27777e-07 -2.26553e-05 -0.0162121 0.0188205 -0.204279)
(-3.09403e-06 4.69669e-07 -1.88165e-05 -0.0162062 0.0188214 -0.204266)
(-3.1869e-05 -8.47437e-06 -2.91875e-05 -0.0162401 0.0188079 -0.204266)
(-0.000260956 -7.26199e-05 -0.000234404 -0.0162145 0.018706 -0.204184)
(-0.0020362 -0.000317326 -0.00181027 -0.0159744 0.0182394 -0.204526)
(-0.0183878 -0.0006071 -0.0089807 -0.0149071 0.0164219 -0.206584)
(-0.0887725 -0.00139684 -0.0522066 -0.0139663 0.0165852 -0.151203)
(-0.0904311 0.000965028 0.0534956 -0.00883839 0.0102749 -0.150921)
(-0.0188254 0.000447811 0.0093115 -0.00931547 0.0100213 -0.207586)
(-0.00210352 0.00023827 0.00192639 -0.010118 0.0113406 -0.205507)
(-0.000280007 5.80527e-05 0.000265765 -0.010331 0.0116988 -0.205182)
(-3.63694e-05 6.79746e-06 4.01752e-05 -0.0103383 0.0117919 -0.205262)
(-4.36318e-06 -4.40192e-07 1.20708e-05 -0.010357 0.0117488 -0.205272)
(-8.926e-07 -2.49973e-06 1.51259e-05 -0.0103214 0.0117891 -0.205268)
(-1.46107e-06 -1.17428e-06 1.69023e-05 -0.0103383 0.0117314 -0.205272)
(-7.98854e-07 -3.03837e-07 -7.21426e-07 -0.0103481 0.0117392 -0.205274)
(-1.69229e-07 -1.15224e-07 6.23574e-06 -0.010319 0.0117274 -0.205261)
(-9.47919e-07 -7.21952e-07 3.6623e-06 -0.0103276 0.0117835 -0.205274)
(-2.18839e-07 -1.68435e-06 -6.1882e-06 -0.0103247 0.0117276 -0.205255)
(6.75793e-07 1.93161e-06 7.46578e-06 -0.0103241 0.0116936 -0.205246)
(-4.22639e-07 5.80453e-07 8.37251e-06 -0.0103441 0.0117391 -0.20527)
(-7.18582e-07 -8.55322e-07 -7.15375e-06 -0.0103371 0.0117304 -0.205272)
(4.66964e-07 1.15757e-06 -1.2546e-06 -0.0103203 0.0117302 -0.205262)
(-1.80172e-09 -1.97365e-07 7.41113e-06 -0.0103441 0.0117391 -0.205272)
(-5.31634e-07 -1.99599e-06 -7.29409e-06 -0.0103369 0.0117309 -0.205271)
(-3.73104e-08 -1.64129e-06 -1.3381e-06 -0.0103261 0.0117254 -0.205257)
(-6.80514e-07 -8.39441e-07 4.15877e-06 -0.0103348 0.011688 -0.205254)
(-5.40287e-07 4.1676e-06 -6.84297e-06 -0.0103413 0.011688 -0.205254)
(-4.32109e-07 2.00174e-06 -6.73238e-06 -0.0103389 0.0117946 -0.205277)
(-1.68342e-06 -1.27973e-06 -1.62879e-05 -0.0103371 0.0117301 -0.205272)
(-1.01626e-06 1.91252e-06 -2.24474e-05 -0.0103307 0.0117369 -0.20526)
(-3.69235e-06 -1.36056e-06 -1.05467e-05 -0.0103273 0.0117553 -0.205252)
(-3.67013e-05 -8.11529e-06 -3.90659e-05 -0.0103423 0.0116944 -0.205237)
(-0.00028009 -5.47382e-05 -0.000267023 -0.0103189 0.0116915 -0.205166)
(-0.00210333 -0.000236799 -0.00191934 -0.0101235 0.0113466 -0.205502)
(-0.0188249 -0.000447318 -0.00931217 -0.00931626 0.0100204 -0.207584)
(-0.0904278 -0.000965023 -0.0534939 -0.00884699 0.0102824 -0.150923)
(-0.091451 0.000613319 0.0543458 -0.00558099 0.00642526 -0.150899)
(-0.0191119 0.000310745 0.00957446 -0.00578108 0.00616854 -0.208382)
(-0.00215378 0.000172492 0.00201436 -0.00639219 0.00713208 -0.206313)
(-0.000294858 4.19757e-05 0.000277646 -0.00655025 0.00734605 -0.205982)
(-3.9749e-05 5.63245e-06 4.25583e-05 -0.00657093 0.00738119 -0.206061)
(-4.9362e-06 1.28577e-06 1.87523e-05 -0.00657043 0.0073854 -0.206075)
(-1.14633e-06 -1.68143e-06 1.41359e-05 -0.00656558 0.00743038 -0.206081)
(-1.18834e-06 -2.05406e-06 1.00253e-05 -0.00655902 0.00737371 -0.206076)
(-6.52152e-07 1.19251e-06 6.18274e-06 -0.00656463 0.0073798 -0.206077)
(-3.78149e-07 -2.5306e-07 5.57854e-06 -0.00655274 0.00742077 -0.206079)
(-9.4255e-07 -1.35063e-06 3.58813e-06 -0.00656346 0.00737704 -0.206074)
(-1.08378e-07 1.31005e-06 -5.785e-06 -0.00655031 0.00738138 -0.206063)
(7.07819e-07 7.42767e-07 1.04675e-06 -0.00654194 0.00742461 -0.206064)
(-3.50031e-07 -1.9573e-06 8.20634e-06 -0.00656195 0.00737871 -0.206073)
(-6.38789e-07 8.8376e-07 -4.18251e-07 -0.00655962 0.00737348 -0.206076)
(2.07274e-07 8.79032e-07 -7.62118e-07 -0.00655345 0.00742298 -0.206079)
(-1.07185e-07 -1.65869e-06 3.08918e-07 -0.0065621 0.00737863 -0.206075)
(-5.79414e-07 -1.15288e-06 -7.89104e-07 -0.00655852 0.00737402 -0.206074)
(-3.12203e-07 -3.58578e-07 -8.57649e-06 -0.00655469 0.00738025 -0.206063)
(-1.42685e-07 -9.13544e-07 -9.88275e-06 -0.00654445 0.00737154 -0.206059)
(2.69733e-08 1.87757e-06 8.17192e-07 -0.00654161 0.00733293 -0.20605)
(-6.74636e-07 1.51239e-06 4.79269e-07 -0.00656989 0.00738322 -0.206075)
(-1.85574e-06 8.2845e-07 -9.25549e-06 -0.00655823 0.00737348 -0.206077)
(-1.39013e-06 3.34593e-06 -2.19673e-05 -0.00655992 0.00742719 -0.206078)
(-4.23173e-06 -1.60117e-06 -2.46025e-05 -0.00655533 0.00743405 -0.206066)
(-3.95922e-05 -8.29422e-06 -3.44281e-05 -0.00654804 0.00737531 -0.206042)
(-0.00029493 -4.08271e-05 -0.000271541 -0.00654718 0.00735053 -0.205967)
(-0.00215388 -0.000171726 -0.00201412 -0.00639567 0.00713497 -0.206307)
(-0.0191118 -0.000310498 -0.00957532 -0.00578168 0.00616747 -0.208381)
(-0.0914491 -0.000613613 -0.0543451 -0.00558549 0.00643187 -0.1509)
(-0.0920793 0.000370238 0.0548729 -0.0035244 0.00403408 -0.150923)
(-0.0192876 0.000204204 0.00975151 -0.0035827 0.00382952 -0.208908)
(-0.00218787 0.000122209 0.00207953 -0.00403609 0.00445315 -0.206845)
(-0.000305871 3.11914e-05 0.000292643 -0.00414787 0.00463825 -0.206522)
(-4.23842e-05 4.51934e-06 4.46236e-05 -0.00416523 0.00466565 -0.206603)
(-5.44817e-06 8.73169e-07 1.86309e-05 -0.00416349 0.0046676 -0.206618)
(-1.2782e-06 -1.10728e-06 1.33794e-05 -0.00416955 0.00467093 -0.206621)
(-1.02443e-06 -1.12774e-06 9.76916e-06 -0.00415676 0.00466103 -0.20662)
(-6.09454e-07 5.8549e-07 6.1062e-06 -0.00415969 0.00466444 -0.20662)
(-6.12764e-07 -2.25299e-07 5.3331e-06 -0.00416217 0.00466486 -0.20662)
(-6.70157e-07 -1.75611e-07 -3.51017e-06 -0.00415929 0.00466439 -0.206617)
(2.71982e-07 2.09749e-06 1.12571e-06 -0.00414932 0.00466336 -0.206605)
(2.34898e-07 -2.62898e-08 8.46153e-06 -0.00416064 0.00471007 -0.206616)
(-5.08968e-07 -2.77429e-06 1.173e-06 -0.00415851 0.00466449 -0.206617)
(-3.17413e-07 4.06184e-07 -5.34393e-07 -0.0041613 0.00466124 -0.206617)
(8.91446e-08 8.91563e-07 -4.17327e-07 -0.00416271 0.00466668 -0.206619)
(-4.11005e-07 -1.0509e-06 1.55976e-07 -0.00415847 0.00466444 -0.206619)
(-3.76485e-07 -1.11112e-06 -8.0151e-06 -0.0041577 0.00466105 -0.206616)
(5.96341e-08 9.19539e-07 -1.84443e-06 -0.00414567 0.00462635 -0.206595)
(-2.76659e-07 1.77063e-06 -3.0887e-06 -0.00415688 0.00470273 -0.206611)
(-5.67164e-08 1.42137e-07 -5.30179e-06 -0.00414052 0.00470247 -0.206606)
(-6.14195e-07 -9.93095e-07 7.54247e-07 -0.00416301 0.00466752 -0.206617)
(-1.59794e-06 4.53694e-07 -9.45201e-06 -0.00415628 0.00466135 -0.20662)
(-1.33893e-06 3.29347e-06 -1.43829e-05 -0.00416656 0.0046678 -0.206618)
(-5.35839e-06 4.03557e-07 -1.78008e-05 -0.00416859 0.00471599 -0.206617)
(-4.24774e-05 -7.80912e-06 -5.06845e-05 -0.00415548 0.00470457 -0.206596)
(-0.00030531 -3.20653e-05 -0.000292998 -0.00413976 0.00460046 -0.206496)
(-0.00218788 -0.000121211 -0.00207215 -0.00403866 0.00445419 -0.206838)
(-0.019288 -0.000203803 -0.00975247 -0.00358305 0.00382826 -0.208908)
(-0.092079 -0.000370606 -0.0548731 -0.00352452 0.00403911 -0.150924)
(-0.092466 0.000217151 0.0551872 -0.0022327 0.00253229 -0.150944)
(-0.0193908 0.000129797 0.00986695 -0.00222842 0.0023871 -0.209231)
(-0.0022096 8.4633e-05 0.00212625 -0.00254635 0.00280071 -0.207179)
(-0.000313837 2.24716e-05 0.000303732 -0.00263221 0.00293134 -0.206861)
(-4.43648e-05 3.49672e-06 4.62653e-05 -0.00264945 0.00295118 -0.206941)
(-5.86214e-06 9.03565e-07 1.88149e-05 -0.0026448 0.00295302 -0.206959)
(-1.3896e-06 -6.94936e-07 1.28454e-05 -0.00264752 0.00295554 -0.206961)
(-9.18481e-07 -6.76516e-07 9.32611e-06 -0.00264058 0.00294938 -0.206962)
(-5.77765e-07 3.12108e-07 6.26083e-06 -0.00264218 0.00295119 -0.206961)
(-5.06668e-07 -1.46595e-07 5.19758e-06 -0.0026435 0.0029528 -0.206961)
(-5.2913e-07 1.02337e-06 3.07033e-06 -0.00264219 0.00295143 -0.206958)
(2.69089e-08 1.11354e-06 1.40502e-06 -0.00264216 0.00299108 -0.206957)
(-5.12629e-08 -1.10006e-06 1.85865e-06 -0.0026509 0.00295708 -0.206957)
(-3.7337e-07 -2.4589e-06 8.54836e-07 -0.0026417 0.00295189 -0.206958)
(-4.58303e-08 2.17347e-07 -3.69361e-07 -0.0026386 0.00291405 -0.20695)
(5.29346e-09 1.50228e-06 -2.337e-07 -0.00264388 0.00295421 -0.20696)
(-5.43303e-07 -9.32148e-07 -2.70526e-07 -0.00264163 0.00295207 -0.20696)
(-2.88714e-07 1.16948e-06 -8.15204e-06 -0.002645 0.00294922 -0.206956)
(2.92376e-07 -2.17798e-07 -1.76812e-06 -0.00262715 0.00299119 -0.206945)
(-2.23034e-07 1.51664e-08 3.61534e-06 -0.00264429 0.00291555 -0.206944)
(-4.25797e-07 1.14691e-06 -4.89236e-06 -0.00264772 0.00299155 -0.206954)
(-6.63653e-07 -1.38028e-06 -5.87974e-06 -0.00264482 0.00295264 -0.206958)
(-1.24335e-06 2.84857e-07 -9.36947e-06 -0.00264031 0.00294989 -0.206961)
(-1.34012e-06 1.80656e-06 -1.36633e-05 -0.00264626 0.00295366 -0.20696)
(-6.0097e-06 2.03133e-08 -1.80172e-05 -0.00265531 0.00295955 -0.206957)
(-4.45718e-05 -3.90036e-06 -5.28793e-05 -0.00264878 0.00295185 -0.206936)
(-0.000313086 -2.32105e-05 -0.000303834 -0.00262589 0.00296928 -0.206843)
(-0.00220954 -8.54754e-05 -0.0021187 -0.00254937 0.00280045 -0.207172)
(-0.0193917 -0.000128823 -0.00986789 -0.00222856 0.00238579 -0.209231)
(-0.092467 -0.00021755 -0.0551884 -0.00222799 0.0025364 -0.150947)
(-0.0927074 0.000125884 0.0553703 -0.00141267 0.00154201 -0.150953)
(-0.0194502 8.12852e-05 0.00993892 -0.00139814 0.00148467 -0.209425)
(-0.00222294 5.71684e-05 0.00215893 -0.00161659 0.00175287 -0.207383)
(-0.000319428 1.50906e-05 0.000311988 -0.00168127 0.00184354 -0.207069)
(-4.57429e-05 2.59831e-06 4.75178e-05 -0.00168952 0.00182255 -0.207144)
(-6.17832e-06 1.55005e-06 1.89066e-05 -0.00169185 0.00185917 -0.207169)
(-1.52701e-06 -3.85018e-07 1.24676e-05 -0.00169257 0.00186045 -0.207172)
(-8.48522e-07 -4.30808e-07 9.01076e-06 -0.00168889 0.00185729 -0.207173)
(-5.50252e-07 1.92378e-07 6.36481e-06 -0.00168977 0.00185834 -0.207172)
(-4.85304e-07 -1.4363e-07 5.08262e-06 -0.00169037 0.00185941 -0.207171)
(-4.43233e-07 1.15016e-07 2.96372e-06 -0.00169056 0.00185823 -0.207169)
(-4.24839e-08 6.6383e-07 1.76393e-06 -0.00170085 0.00186075 -0.207166)
(-3.55892e-07 -1.45651e-07 1.92107e-06 -0.00169456 0.0018625 -0.207168)
(-3.23976e-07 -8.64859e-07 -6.35929e-06 -0.00168954 0.0018592 -0.207168)
(3.93946e-07 1.37123e-07 -2.34612e-07 -0.00167849 0.00185705 -0.207159)
(-9.98798e-08 3.7653e-07 6.77651e-06 -0.00169067 0.00186055 -0.207169)
(-5.39066e-07 -1.47978e-06 -5.63591e-07 -0.0016895 0.00185944 -0.20717)
(-2.88138e-07 1.73564e-06 -1.40673e-06 -0.00168655 0.00182226 -0.20716)
(-9.5297e-08 1.19022e-06 -8.5086e-06 -0.0016925 0.00189872 -0.207163)
(5.64071e-08 -2.12455e-06 -2.98171e-06 -0.0016816 0.00185763 -0.207154)
(-2.65073e-07 8.63258e-08 2.08769e-06 -0.00169497 0.00182714 -0.207158)
(-8.24711e-07 2.87805e-07 -6.05987e-06 -0.00169299 0.00185828 -0.207168)
(-1.10882e-06 3.21283e-07 -9.22755e-06 -0.00168878 0.00185786 -0.207172)
(-1.38039e-06 9.98912e-07 -1.30571e-05 -0.00169205 0.00185934 -0.207171)
(-6.29725e-06 -2.6022e-07 -1.80683e-05 -0.00169678 0.00186325 -0.207168)
(-4.60851e-05 -3.02241e-06 -4.77811e-05 -0.00169505 0.00185789 -0.207147)
(-0.000318902 -1.67184e-05 -0.000312169 -0.0016879 0.00184684 -0.207052)
(-0.00222269 -5.75885e-05 -0.00215811 -0.00162229 0.00175199 -0.207376)
(-0.0194513 -7.89485e-05 -0.00993962 -0.00139837 0.00148342 -0.209425)
(-0.092705 -0.000126065 -0.0553732 -0.00141613 0.00158438 -0.150963)
(-0.0928551 7.23252e-05 0.055471 -0.000899522 0.000972496 -0.15096)
(-0.0194839 4.81157e-05 0.00999253 -0.000892484 0.000911498 -0.209542)
(-0.00223112 3.73513e-05 0.00218105 -0.00104197 0.00108126 -0.207509)
(-0.000323216 1.09418e-05 0.000311098 -0.00109025 0.00114203 -0.207197)
(-4.64707e-05 1.6987e-06 4.83996e-05 -0.00108873 0.00115088 -0.207271)
(-6.4031e-06 4.86724e-07 2.57985e-05 -0.00110013 0.00115259 -0.207299)
(-1.76142e-06 -1.27278e-07 1.22397e-05 -0.00109903 0.00115365 -0.207302)
(-8.09146e-07 -2.7215e-07 8.80132e-06 -0.00109699 0.00115194 -0.207303)
(-5.35249e-07 1.23553e-07 6.41626e-06 -0.00109749 0.0011526 -0.207302)
(-5.32001e-07 -2.30306e-07 4.96823e-06 -0.00109784 0.00115328 -0.207301)
(-3.73794e-07 -8.9845e-07 3.04076e-06 -0.00109942 0.00115194 -0.207298)
(3.32149e-08 5.15883e-07 2.02528e-06 -0.00109846 0.00112 -0.20729)
(-3.14074e-07 8.96295e-07 1.82765e-06 -0.00110001 0.00115485 -0.207298)
(-3.51146e-07 3.68064e-07 4.88047e-08 -0.00109757 0.00115343 -0.207298)
(1.9107e-07 7.171e-08 -1.47929e-07 -0.00109933 0.00118819 -0.207295)
(-3.02669e-07 -5.92466e-07 2.59487e-07 -0.00109845 0.00115417 -0.207298)
(-3.35215e-07 -2.57008e-07 -7.57974e-06 -0.00109734 0.00115362 -0.207299)
(2.08771e-07 7.78918e-07 -1.22364e-06 -0.0010853 0.00115177 -0.207289)
(-3.9798e-07 8.64176e-07 4.92907e-06 -0.00110555 0.00115656 -0.207295)
(-3.84614e-07 -4.57351e-07 -9.73843e-06 -0.00110054 0.00118762 -0.207291)
(7.30705e-08 -1.12032e-06 -4.46809e-06 -0.00108952 0.00115507 -0.207286)
(-6.47207e-07 -3.85027e-07 5.24932e-07 -0.00110329 0.00115188 -0.207297)
(-1.16525e-06 5.4034e-07 -9.05412e-06 -0.001097 0.00115265 -0.207301)
(-1.45894e-06 5.5313e-07 -1.27073e-05 -0.00109896 0.00115272 -0.207301)
(-6.73145e-06 -5.81804e-07 -1.8215e-05 -0.00110116 0.001155 -0.207298)
(-4.72247e-05 -2.65519e-06 -5.55725e-05 -0.00110399 0.0011508 -0.207276)
(-0.000322423 -1.20475e-05 -0.000318159 -0.00108489 0.00110967 -0.207173)
(-0.00223027 -3.73474e-05 -0.00217366 -0.00104003 0.00104571 -0.207495)
(-0.0194856 -4.64798e-05 -0.00998277 -0.000892977 0.000910276 -0.209541)
(-0.09285 -7.24141e-05 -0.0554807 -0.00091264 0.000974982 -0.150976)
(-0.0929365 4.05724e-05 0.0555385 -0.000609718 0.000614575 -0.150976)
(-0.0195034 2.66986e-05 0.0100078 -0.000590943 0.000538326 -0.20961)
(-0.00223519 2.30548e-05 0.0021953 -0.000695069 0.000640908 -0.207584)
(-0.000325694 7.73297e-06 0.000321751 -0.000731871 0.000679231 -0.207274)
(-4.74514e-05 7.76267e-07 4.89429e-05 -0.000742232 0.000719715 -0.207354)
(-6.50379e-06 -3.62068e-07 1.92311e-05 -0.000743317 0.000685877 -0.207376)
(-1.68122e-06 2.52363e-07 1.21267e-05 -0.00073875 0.000686809 -0.207381)
(-7.97723e-07 -1.60806e-07 8.64165e-06 -0.000737526 0.000685752 -0.207382)
(-5.4315e-07 7.696e-08 6.45106e-06 -0.000737822 0.000686196 -0.207381)
(-6.91073e-07 -4.7629e-07 4.81224e-06 -0.000738108 0.000686788 -0.207379)
(-2.93052e-07 7.78687e-08 -3.69315e-06 -0.000742564 0.000685422 -0.207376)
(3.38772e-07 6.27816e-07 2.23185e-06 -0.000728049 0.000687245 -0.207366)
(-3.79749e-07 -7.95136e-08 8.53893e-06 -0.000739235 0.000687307 -0.207377)
(-4.98256e-07 -8.46322e-07 1.51059e-08 -0.000738028 0.000686901 -0.207377)
(2.19771e-07 -9.14782e-09 -8.85879e-08 -0.000741105 0.000653286 -0.207369)
(-1.70269e-07 7.62615e-07 2.76914e-07 -0.00073918 0.000687051 -0.207377)
(-3.05844e-07 1.0469e-06 -1.02045e-06 -0.000737953 0.000687009 -0.207378)
(-7.04604e-08 3.20683e-07 -1.04862e-06 -0.000735203 0.000721275 -0.207374)
(-3.04485e-07 -1.71247e-06 -1.74892e-06 -0.000741802 0.000688427 -0.207375)
(-2.96769e-07 9.3968e-07 -3.09203e-06 -0.000741034 0.000652378 -0.207367)
(-2.3251e-07 -5.22288e-07 -4.44343e-06 -0.000737232 0.000722738 -0.207371)
(-5.19109e-07 -1.32563e-06 -6.24676e-06 -0.000736737 0.000650918 -0.20737)
(-9.51469e-07 1.19849e-06 -8.94969e-06 -0.00073755 0.00068652 -0.207379)
(-1.60738e-06 2.93114e-07 -1.25255e-05 -0.000739199 0.000685734 -0.20738)
(-6.91198e-06 -1.24527e-06 -1.83307e-05 -0.000739718 0.000687417 -0.207377)
(-4.80173e-05 -7.11587e-08 -5.62433e-05 -0.000736639 0.000649879 -0.207349)
(-0.000324967 -5.93173e-06 -0.000329445 -0.000721674 0.000715459 -0.207256)
(-0.00223437 -2.48176e-05 -0.00218818 -0.000683359 0.00063978 -0.207568)
(-0.0195049 -2.74934e-05 -0.0100007 -0.00059173 0.000536804 -0.20961)
(-0.0929365 -4.03995e-05 -0.0555423 -0.000607945 0.00057648 -0.150985)
(-0.0929852 2.09447e-05 0.0555723 -0.000438138 0.000264834 -0.15098)
(-0.0195139 1.52116e-05 0.0100216 -0.000421733 0.000282358 -0.209649)
(-0.00223758 1.24395e-05 0.00220375 -0.000499099 0.000337053 -0.207627)
(-0.000327194 2.87766e-06 0.000324202 -0.000528709 0.000358042 -0.207318)
(-4.78567e-05 -3.44627e-07 4.92964e-05 -0.000541275 0.000327615 -0.207394)
(-6.48076e-06 1.24563e-06 1.93045e-05 -0.0005319 0.000327555 -0.207415)
(-1.73428e-06 1.05196e-06 1.20398e-05 -0.00053412 0.000362249 -0.207425)
(-8.41588e-07 -7.71824e-08 8.533e-06 -0.000533456 0.000361728 -0.207427)
(-5.94867e-07 3.82619e-08 6.49418e-06 -0.000533658 0.000362023 -0.207426)
(-5.35422e-07 -1.14289e-06 4.7277e-06 -0.00053383 0.000362493 -0.207424)
(-1.53293e-07 1.1321e-06 3.02629e-06 -0.000531389 0.000327465 -0.207416)
(2.0619e-08 1.19849e-06 2.32804e-06 -0.000532817 0.000397426 -0.207417)
(-6.05981e-07 -1.11213e-06 1.78821e-06 -0.000534862 0.000362542 -0.207422)
(-3.42929e-07 -9.96301e-09 -6.67072e-06 -0.000533849 0.000362661 -0.207422)
(5.22782e-07 -1.45794e-07 -1.01621e-07 -0.000526368 0.000362912 -0.207411)
(-1.03173e-07 -6.04344e-09 6.96676e-06 -0.000536067 0.000362003 -0.207421)
(-4.39598e-07 5.31523e-07 -9.98088e-07 -0.000534049 0.000362679 -0.207423)
(-3.29341e-07 1.30416e-07 -1.01327e-06 -0.000538909 0.000363146 -0.207422)
(-2.66391e-07 -2.42449e-07 -8.50987e-06 -0.000535565 0.000362687 -0.20742)
(-1.28436e-07 3.95988e-07 -3.03178e-06 -0.000524635 0.00036242 -0.207411)
(-3.58714e-07 -3.62975e-07 -4.54751e-06 -0.000539623 0.000363608 -0.207418)