/*--------------------------------*- C++ -*----------------------------------*\
| =========                 |                                                 |
| \\      /  F ield         | OpenFOAM: The Open Source CFD Toolbox           |
|  \\    /   O peration     | Version:  2106                                  |
|   \\  /    A nd           | Website:  www.openfoam.com                      |
|    \\/     M anipulation  |                                                 |
\*---------------------------------------------------------------------------*/
FoamFile
{
    version     2.0;
    format      ascii;
    arch        "LSB;label=32;scalar=64";
    class       volSymmTensorField;
    location    "193";
    object      sigma;
}
// * * * * * * * * * * * * * * * * * * * * * * * * * * * * * * * * * * * * * //

dimensions      [1 -1 -2 0 0 0 0];

internalField   nonuniform List<symmTensor> 
9000
(
(5.39832e+07 -140413 2.49075e+07 2.2201e+07 3.17386e+07 8.53642e+07)
(9.64034e+07 276946 4.85862e+06 2.42785e+07 3.3652e+07 6.92753e+07)
(1.11059e+08 173616 1.32704e+06 2.61289e+07 3.57377e+07 8.15762e+07)
(1.12867e+08 26376.8 229886 2.62686e+07 3.61983e+07 8.36553e+07)
(1.13087e+08 -3864.29 16788 2.63058e+07 3.62135e+07 8.37358e+07)
(1.13102e+08 -939.946 6993.08 2.63815e+07 3.61089e+07 8.3598e+07)
(1.13115e+08 37.1157 7961.62 2.63177e+07 3.61969e+07 8.36988e+07)
(1.1311e+08 -2952.51 -1674.01 2.63903e+07 3.61091e+07 8.36042e+07)
(1.13109e+08 3273.88 12539.1 2.63893e+07 3.61091e+07 8.36052e+07)
(1.1312e+08 3445.51 -6653.59 2.63167e+07 3.62034e+07 8.37222e+07)
(1.13134e+08 -2953.35 -24126.6 2.63783e+07 3.61473e+07 8.36863e+07)
(1.13127e+08 -359.489 18282.7 2.64502e+07 3.60567e+07 8.35836e+07)
(1.13117e+08 2512.53 24824 2.63149e+07 3.61998e+07 8.37126e+07)
(1.1311e+08 469.978 -16054.3 2.63036e+07 3.62009e+07 8.36989e+07)
(1.13135e+08 488.123 2146.64 2.63746e+07 3.61507e+07 8.36918e+07)
(1.13123e+08 -703.236 15214.4 2.63153e+07 3.62053e+07 8.37281e+07)
(1.13111e+08 231.714 -17874.8 2.63042e+07 3.62007e+07 8.36977e+07)
(1.13133e+08 434.675 939.927 2.63735e+07 3.61512e+07 8.36924e+07)
(1.13124e+08 -3357.59 -10217.4 2.63198e+07 3.62023e+07 8.37242e+07)
(1.13122e+08 -3234.72 -10266.2 2.64512e+07 3.60549e+07 8.35741e+07)
(1.13114e+08 2876.41 22673.5 2.6393e+07 3.6109e+07 8.36096e+07)
(1.13114e+08 3223.61 4737.97 2.63113e+07 3.62006e+07 8.37092e+07)
(1.13119e+08 -3030.3 -13127 2.63159e+07 3.62028e+07 8.37154e+07)
(1.13109e+08 -402.786 -9105.12 2.63857e+07 3.61102e+07 8.36059e+07)
(1.13108e+08 845.221 -7470.19 2.63134e+07 3.61962e+07 8.36931e+07)
(1.13079e+08 975.414 -42522.6 2.63783e+07 3.61233e+07 8.36377e+07)
(1.12878e+08 -23859.4 -224610 2.63334e+07 3.61392e+07 8.36112e+07)
(1.11047e+08 -173631 -1.30822e+06 2.61197e+07 3.5732e+07 8.15484e+07)
(9.64018e+07 -276472 -4.85649e+06 2.42783e+07 3.36521e+07 6.92761e+07)
(5.3982e+07 140363 -2.49081e+07 2.21997e+07 3.17375e+07 8.53625e+07)
(4.17371e+07 -11593.5 2.40345e+07 2.84458e+07 3.52431e+07 1.26607e+07)
(7.28248e+07 350951 4.1565e+06 2.80083e+07 3.70755e+07 -8.94421e+06)
(8.59896e+07 223531 795543 3.05037e+07 3.93996e+07 -1.41094e+06)
(8.73346e+07 36873.9 114743 3.04181e+07 3.99951e+07 -527871)
(8.74795e+07 -3019.39 11556.6 3.04568e+07 4.00139e+07 -496980)
(8.75984e+07 -1833.08 11024.2 3.06716e+07 3.99845e+07 -389742)
(8.7509e+07 353.732 8558.6 3.04895e+07 3.99862e+07 -492615)
(8.76136e+07 -590.261 -5180.08 3.06974e+07 3.99853e+07 -374811)
(8.76125e+07 1002.49 14227.2 3.06939e+07 3.99845e+07 -376001)
(8.75079e+07 3648.71 13971.5 3.0482e+07 3.99954e+07 -490246)
(8.75662e+07 1670.89 -8033.46 3.05839e+07 4.00866e+07 -411816)
(8.76701e+07 -3095.73 400.463 3.07912e+07 4.00805e+07 -295165)
(8.75068e+07 -3590.07 10308.1 3.04785e+07 3.99893e+07 -490587)
(8.75276e+07 3229.53 543.398 3.05146e+07 3.99146e+07 -462538)
(8.75615e+07 1923.52 -148.072 3.05741e+07 4.00922e+07 -417529)
(8.75064e+07 -4553.25 -678.668 3.04772e+07 3.99979e+07 -491306)
(8.7528e+07 2672.99 189.143 3.05155e+07 3.99147e+07 -462963)
(8.75604e+07 1900.05 -137.563 3.05722e+07 4.00931e+07 -418443)
(8.75117e+07 -1113.43 -10956.9 3.0488e+07 3.99932e+07 -485189)
(8.76716e+07 -973.049 -12136 3.07975e+07 4.00793e+07 -295432)
(8.76178e+07 -2119.56 6267.17 3.07025e+07 3.99841e+07 -368339)
(8.75005e+07 1006.19 6137.85 3.04686e+07 3.99915e+07 -500254)
(8.75066e+07 -526.882 -15718.1 3.04816e+07 3.99958e+07 -493947)
(8.76069e+07 -863.348 -7501 3.06839e+07 3.99859e+07 -382110)
(8.75008e+07 1715.83 -10012.7 3.04769e+07 3.99854e+07 -498784)
(8.75838e+07 4865.87 -21077.5 3.06646e+07 4.00078e+07 -378103)
(8.73993e+07 -38174.8 -103928 3.05334e+07 4.00818e+07 -441640)
(8.60138e+07 -225874 -796959 3.05465e+07 3.93139e+07 -1.37769e+06)
(7.28261e+07 -349117 -4.1571e+06 2.80101e+07 3.70753e+07 -8.94148e+06)
(4.1736e+07 11510.3 -2.4035e+07 2.84422e+07 3.52403e+07 1.26594e+07)
(4.53177e+07 600751 2.4167e+07 5.49645e+07 3.00742e+07 5.61549e+06)
(8.00416e+07 448480 4.07281e+06 5.74828e+07 3.13488e+07 -1.56055e+07)
(9.3896e+07 268494 705883 6.21016e+07 3.34506e+07 -8.29704e+06)
(9.52833e+07 50949.7 83606.3 6.22709e+07 3.40626e+07 -7.58332e+06)
(9.54207e+07 -197.402 23409.6 6.23191e+07 3.40868e+07 -7.56153e+06)
(9.55035e+07 -2374.11 12134.1 6.24456e+07 3.4148e+07 -7.46029e+06)
(9.54439e+07 1256.72 8282.9 6.23446e+07 3.40607e+07 -7.55171e+06)
(9.54993e+07 2067.26 7781.6 6.24435e+07 3.41967e+07 -7.47644e+06)
(9.54956e+07 -1552.85 553.023 6.24344e+07 3.41956e+07 -7.47994e+06)
(9.5447e+07 -1289.04 1071.27 6.23469e+07 3.40697e+07 -7.54985e+06)
(9.54542e+07 1660.78 5885.95 6.23582e+07 3.40571e+07 -7.53539e+06)
(9.55059e+07 -1430.45 406.011 6.24503e+07 3.41871e+07 -7.46129e+06)
(9.5466e+07 -1816.8 -10632.1 6.23749e+07 3.40168e+07 -7.51644e+06)
(9.54885e+07 1831.66 110.88 6.2424e+07 3.40684e+07 -7.49778e+06)
(9.54507e+07 282.079 6528.28 6.23534e+07 3.40634e+07 -7.54069e+06)
(9.54442e+07 -490.428 -7925.34 6.23435e+07 3.40722e+07 -7.55265e+06)
(9.54874e+07 283.138 708.734 6.24233e+07 3.40686e+07 -7.49963e+06)
(9.54515e+07 20.9032 7055.66 6.23528e+07 3.40641e+07 -7.54036e+06)
(9.54484e+07 1214.13 2911.7 6.23507e+07 3.40676e+07 -7.54658e+06)
(9.55078e+07 1560.74 1470.26 6.24553e+07 3.41869e+07 -7.46035e+06)
(9.55025e+07 -2969.48 -7342.6 6.24481e+07 3.41953e+07 -7.4707e+06)
(9.546e+07 -1313.46 -7468.66 6.23644e+07 3.40186e+07 -7.52697e+06)
(9.54455e+07 2695.11 -2635.23 6.23472e+07 3.40707e+07 -7.55234e+06)
(9.5491e+07 -2037.45 -6728.5 6.24267e+07 3.41963e+07 -7.48503e+06)
(9.54562e+07 2000.46 -10581.1 6.23622e+07 3.40126e+07 -7.52596e+06)
(9.54741e+07 2120.21 -18809.7 6.24122e+07 3.42168e+07 -7.4849e+06)
(9.52979e+07 -53230.2 -93063 6.22953e+07 3.40459e+07 -7.55837e+06)
(9.39426e+07 -268033 -707876 6.2186e+07 3.34437e+07 -8.23774e+06)
(8.00448e+07 -448411 -4.06664e+06 5.74865e+07 3.13487e+07 -1.56003e+07)
(4.53156e+07 -600864 -2.41673e+07 5.49565e+07 3.00709e+07 5.61355e+06)
(4.97465e+07 934217 2.5001e+07 7.38297e+07 2.11561e+07 1.24453e+07)
(8.84705e+07 453268 4.21302e+06 7.80649e+07 2.18522e+07 -8.66181e+06)
(1.03328e+08 255616 767473 8.40913e+07 2.35786e+07 -681633)
(1.04844e+08 52055.8 93993.6 8.44788e+07 2.40339e+07 128542)
(1.04994e+08 -54.8063 15510.8 8.45264e+07 2.40594e+07 151184)
(1.05045e+08 -2977.49 12127.9 8.45972e+07 2.40094e+07 203279)
(1.0503e+08 672.523 12985.5 8.45679e+07 2.40041e+07 182655)
(1.05012e+08 486.845 5537.55 8.45426e+07 2.40446e+07 152296)
(1.05024e+08 186.52 2640.6 8.45567e+07 2.40089e+07 173474)
(1.05021e+08 360.951 2751.51 8.45541e+07 2.40463e+07 161240)
(1.05021e+08 -717.159 3461.36 8.45571e+07 2.40393e+07 164471)
(1.05016e+08 423.789 -4650.93 8.45467e+07 2.40392e+07 158261)
(1.05048e+08 2736.73 -1427.12 8.46031e+07 2.40431e+07 197623)
(1.05031e+08 289.827 5239.32 8.45776e+07 2.41284e+07 170847)
(1.05022e+08 -1747.2 -297.386 8.45595e+07 2.40451e+07 162545)
(1.05019e+08 2074 -961.154 8.45517e+07 2.4049e+07 158596)
(1.0503e+08 -253.104 571.392 8.45756e+07 2.41287e+07 168029)
(1.05023e+08 -2201.63 233.946 8.45597e+07 2.40455e+07 163491)
(1.05021e+08 -734.536 577.319 8.45558e+07 2.40449e+07 162401)
(1.05016e+08 -183.302 -689.904 8.45487e+07 2.40396e+07 157256)
(1.05015e+08 501.419 -9982.43 8.45451e+07 2.40437e+07 155952)
(1.05043e+08 615.572 -5053.32 8.45934e+07 2.40445e+07 190016)
(1.0502e+08 -764.888 878.705 8.4556e+07 2.40479e+07 160438)
(1.05022e+08 -1821.71 -11828.6 8.45526e+07 2.40087e+07 171889)
(1.05053e+08 2415.91 -10661.6 8.4609e+07 2.40043e+07 214179)
(1.04989e+08 -304.052 -13225.4 8.45178e+07 2.40591e+07 147518)
(1.04851e+08 -50675.5 -94533.8 8.44918e+07 2.40232e+07 139641)
(1.03341e+08 -254391 -768645 8.41179e+07 2.36545e+07 -666903)
(8.84734e+07 -455808 -4.21345e+06 7.8068e+07 2.18522e+07 -8.65724e+06)
(4.97538e+07 -934300 -2.5001e+07 7.38445e+07 2.11196e+07 1.24676e+07)
(5.26062e+07 916490 2.60318e+07 8.56172e+07 1.36481e+07 1.84918e+07)
(9.39045e+07 396930 4.42612e+06 9.09023e+07 1.38453e+07 -3.06249e+06)
(1.09621e+08 212863 855613 9.77486e+07 1.51973e+07 5.50452e+06)
(1.11288e+08 44730.3 104613 9.83447e+07 1.5492e+07 6.45809e+06)
(1.11467e+08 3106.96 15372.6 9.84143e+07 1.54878e+07 6.50417e+06)
(1.11495e+08 -1903.77 7032.5 9.84518e+07 1.55613e+07 6.50445e+06)
(1.1151e+08 -1530.69 12285.9 9.84642e+07 1.54737e+07 6.53422e+06)
(1.11478e+08 1091.59 4769.03 9.84154e+07 1.55108e+07 6.48458e+06)
(1.11496e+08 -5.46839 3243.03 9.84452e+07 1.551e+07 6.50659e+06)
(1.11482e+08 -1042.98 7717.48 9.84171e+07 1.5507e+07 6.49128e+06)
(1.11495e+08 -689.764 2478.31 9.84394e+07 1.54754e+07 6.51317e+06)
(1.11478e+08 2146.94 53.2792 9.84132e+07 1.55077e+07 6.48693e+06)
(1.11484e+08 2022.39 -1017.16 9.84241e+07 1.55561e+07 6.48894e+06)
(1.11473e+08 -900.229 520.022 9.84013e+07 1.55174e+07 6.47969e+06)
(1.11483e+08 -1043.57 329.035 9.84231e+07 1.5508e+07 6.49091e+06)
(1.1148e+08 1209.64 -1345.84 9.84139e+07 1.55093e+07 6.48815e+06)
(1.11472e+08 -110.735 365.863 9.83997e+07 1.55176e+07 6.47722e+06)
(1.11484e+08 -1516.89 691.149 9.84234e+07 1.55082e+07 6.49176e+06)
(1.11481e+08 -721.051 -322.052 9.84166e+07 1.55062e+07 6.4911e+06)
(1.11479e+08 -50.9216 -1388.85 9.84165e+07 1.55084e+07 6.48555e+06)
(1.11478e+08 1325.22 -3870.4 9.84139e+07 1.55099e+07 6.48553e+06)
(1.11494e+08 667.199 -4050.68 9.84411e+07 1.5529e+07 6.50595e+06)
(1.11483e+08 -861.262 -8969.55 9.84218e+07 1.55088e+07 6.4912e+06)
(1.11494e+08 -252.463 -11502.4 9.84403e+07 1.55093e+07 6.50741e+06)
(1.11509e+08 1290.02 -5856.29 9.84677e+07 1.55246e+07 6.531e+06)
(1.11453e+08 -2922.38 -14253.8 9.83937e+07 1.55198e+07 6.48202e+06)
(1.11289e+08 -44669.8 -105207 9.83466e+07 1.54854e+07 6.46222e+06)
(1.09613e+08 -211680 -856398 9.7732e+07 1.5203e+07 5.49629e+06)
(9.3907e+07 -397624 -4.43111e+06 9.09042e+07 1.3845e+07 -3.05948e+06)
(5.26182e+07 -916019 -2.60272e+07 8.56494e+07 1.36462e+07 1.85179e+07)
(5.418e+07 721105 2.69336e+07 9.27649e+07 8.52105e+06 2.19776e+07)
(9.6937e+07 313835 4.63276e+06 9.87334e+07 8.47165e+06 -147163)
(1.1333e+08 165154 933393 1.06145e+08 9.40359e+06 8.87202e+06)
(1.15094e+08 37991.7 116386 1.06861e+08 9.6783e+06 9.88824e+06)
(1.15293e+08 4162.05 19762.4 1.06947e+08 9.69955e+06 9.93834e+06)
(1.15295e+08 -889.081 10613.1 1.06925e+08 9.74019e+06 9.90839e+06)
(1.15331e+08 -1994.36 8140.5 1.06982e+08 9.70347e+06 9.95642e+06)
(1.15305e+08 929.756 8624.99 1.06937e+08 9.69733e+06 9.9212e+06)
(1.15304e+08 -724.738 3465.27 1.06939e+08 9.73388e+06 9.915e+06)
(1.15316e+08 -1411.47 -473.681 1.06951e+08 9.66996e+06 9.94052e+06)
(1.15324e+08 -431.675 2069.32 1.0697e+08 9.69207e+06 9.94734e+06)
(1.15315e+08 150.672 4048.71 1.06949e+08 9.67075e+06 9.94051e+06)
(1.15308e+08 1923.12 -483.578 1.06932e+08 9.67507e+06 9.93247e+06)
(1.15301e+08 281.652 717.451 1.06927e+08 9.70307e+06 9.91705e+06)
(1.15307e+08 -1253.41 319.712 1.0694e+08 9.69559e+06 9.92268e+06)
(1.15315e+08 830.378 -1000.86 1.06948e+08 9.6718e+06 9.93789e+06)
(1.15301e+08 476.885 99.4063 1.06926e+08 9.70315e+06 9.91519e+06)
(1.15307e+08 -1732 457.052 1.0694e+08 9.69577e+06 9.92355e+06)
(1.15315e+08 -561.723 -662.246 1.06948e+08 9.66905e+06 9.94013e+06)
(1.15304e+08 530.522 -1729.29 1.06934e+08 9.69609e+06 9.92218e+06)
(1.15303e+08 1290.08 -7632.54 1.0693e+08 9.69639e+06 9.92086e+06)
(1.15315e+08 593.635 -3592.59 1.06951e+08 9.6997e+06 9.93528e+06)
(1.15306e+08 -329.348 -539.831 1.06939e+08 9.69563e+06 9.92304e+06)
(1.15313e+08 478.605 -11687 1.06951e+08 9.70879e+06 9.93411e+06)
(1.1532e+08 242.285 -9706.72 1.06962e+08 9.70925e+06 9.94874e+06)
(1.15277e+08 -4371.61 -15056.7 1.06916e+08 9.7023e+06 9.92044e+06)
(1.15103e+08 -37461.9 -120920 1.06873e+08 9.64972e+06 9.90696e+06)
(1.13327e+08 -163697 -933852 1.06136e+08 9.40901e+06 8.86963e+06)
(9.69392e+07 -313180 -4.63281e+06 9.87348e+07 8.47144e+06 -144096)
(5.4182e+07 -720579 -2.69314e+07 9.27718e+07 8.55567e+06 2.19767e+07)
(5.50464e+07 497822 2.75964e+07 9.7137e+07 5.30045e+06 2.38418e+07)
(9.86175e+07 231009 4.80346e+06 1.03523e+08 5.1696e+06 1.24321e+06)
(1.15496e+08 122914 993753 1.11362e+08 5.8502e+06 1.05679e+07)
(1.17325e+08 29947.2 137098 1.1214e+08 6.03499e+06 1.16235e+07)
(1.17522e+08 3506.56 20724.9 1.12208e+08 6.08301e+06 1.16538e+07)
(1.1754e+08 -227.078 6226.88 1.12199e+08 6.06079e+06 1.16498e+07)
(1.17562e+08 -1289.52 7802.91 1.12238e+08 6.08155e+06 1.16718e+07)
(1.17552e+08 -605.767 8719.29 1.12219e+08 6.0518e+06 1.16605e+07)
(1.17547e+08 -156.738 -372.157 1.12209e+08 6.05584e+06 1.16538e+07)
(1.17567e+08 -59.4397 3216.79 1.12244e+08 6.04974e+06 1.16805e+07)
(1.17556e+08 -372.428 1889.24 1.12229e+08 6.07868e+06 1.1663e+07)
(1.17567e+08 -868.893 -3192.26 1.12241e+08 6.04984e+06 1.16833e+07)
(1.17572e+08 996.448 3851.32 1.12246e+08 6.03231e+06 1.16932e+07)
(1.17551e+08 299.434 4319.07 1.12215e+08 6.05577e+06 1.16603e+07)
(1.17553e+08 -441.229 -3690.36 1.12221e+08 6.05125e+06 1.16611e+07)
(1.17566e+08 597.146 -647.199 1.12242e+08 6.05118e+06 1.16794e+07)
(1.1755e+08 -101.813 3823.12 1.12214e+08 6.05577e+06 1.16584e+07)
(1.17554e+08 -1029.65 -3762.75 1.12222e+08 6.05152e+06 1.16624e+07)
(1.17566e+08 -846.683 -690.274 1.12239e+08 6.04869e+06 1.16812e+07)
(1.17562e+08 -433.036 2145.35 1.12231e+08 6.02939e+06 1.16794e+07)
(1.17559e+08 2149.91 -3530.03 1.12225e+08 6.02939e+06 1.16763e+07)
(1.1755e+08 1032.62 -3472.98 1.12217e+08 6.08439e+06 1.16553e+07)
(1.17552e+08 -660.165 -8402.3 1.1222e+08 6.05113e+06 1.16606e+07)
(1.17561e+08 986.598 -11579.8 1.12232e+08 6.05465e+06 1.16751e+07)
(1.17564e+08 -701.865 -5440.67 1.12238e+08 6.06414e+06 1.1684e+07)
(1.17532e+08 -4186.38 -20152.6 1.12215e+08 6.03272e+06 1.16766e+07)
(1.17338e+08 -28237.4 -137747 1.12159e+08 6.03123e+06 1.16449e+07)
(1.15496e+08 -122156 -990117 1.11359e+08 5.8533e+06 1.05705e+07)
(9.86185e+07 -230755 -4.8038e+06 1.03524e+08 5.16917e+06 1.24492e+06)
(5.50446e+07 -497820 -2.75955e+07 9.71291e+07 5.30432e+06 2.38371e+07)
(5.55566e+07 316389 2.8035e+07 9.98537e+07 3.31455e+06 2.48897e+07)
(9.95939e+07 160302 4.93911e+06 1.06471e+08 3.18212e+06 1.95659e+06)
(1.16786e+08 88982.4 1.03913e+06 1.146e+08 3.67917e+06 1.14681e+07)
(1.18677e+08 21653.7 143227 1.1545e+08 3.78955e+06 1.25708e+07)
(1.1888e+08 2905.57 21954.2 1.15511e+08 3.80768e+06 1.26013e+07)
(1.18908e+08 663.281 9673.62 1.15521e+08 3.80985e+06 1.26038e+07)
(1.18911e+08 -867.389 7292.18 1.15525e+08 3.83305e+06 1.2602e+07)
(1.18916e+08 -1059.61 5171.66 1.15533e+08 3.80382e+06 1.26094e+07)
(1.18914e+08 615.171 3189.45 1.15527e+08 3.80697e+06 1.26063e+07)
(1.18918e+08 -130.544 2877.76 1.15538e+08 3.8281e+06 1.26101e+07)
(1.18915e+08 -696.74 1850.98 1.1553e+08 3.80554e+06 1.26097e+07)
(1.18927e+08 675.809 -2984.27 1.15548e+08 3.80778e+06 1.2627e+07)
(1.18931e+08 383.166 539.979 1.15556e+08 3.83008e+06 1.263e+07)
(1.18917e+08 -1009.7 4233.35 1.15532e+08 3.8064e+06 1.26117e+07)
(1.18917e+08 455.899 -215.76 1.15533e+08 3.80371e+06 1.26101e+07)
(1.18919e+08 453.46 -393.148 1.15538e+08 3.82924e+06 1.26101e+07)
(1.18916e+08 -855.655 159.359 1.15531e+08 3.80636e+06 1.26095e+07)
(1.18918e+08 -594.726 -407.069 1.15535e+08 3.80398e+06 1.26122e+07)
(1.18925e+08 -184.977 -4424.29 1.15544e+08 3.8072e+06 1.26252e+07)
(1.18932e+08 -471.263 -5098.15 1.15556e+08 3.8027e+06 1.26338e+07)
(1.18937e+08 968.571 421.559 1.15562e+08 3.78278e+06 1.26433e+07)
(1.18912e+08 780.184 247.237 1.15523e+08 3.80873e+06 1.26063e+07)
(1.18915e+08 427.367 -4774.56 1.15533e+08 3.80371e+06 1.26091e+07)
(1.18915e+08 1726.04 -11332.1 1.15531e+08 3.83141e+06 1.26077e+07)
(1.1892e+08 -825.986 -12691.5 1.1554e+08 3.83495e+06 1.26203e+07)
(1.18899e+08 -4278.68 -17760.2 1.15542e+08 3.80465e+06 1.26307e+07)
(1.18686e+08 -21061.2 -140078 1.1546e+08 3.79186e+06 1.25872e+07)
(1.16787e+08 -88587.2 -1.03901e+06 1.14599e+08 3.68066e+06 1.14721e+07)
(9.95943e+07 -160174 -4.93955e+06 1.06471e+08 3.18157e+06 1.95755e+06)
(5.55555e+07 -316540 -2.80346e+07 9.98494e+07 3.31796e+06 2.48868e+07)
(5.5876e+07 190992 2.83069e+07 1.01558e+08 2.08103e+06 2.55207e+07)
(1.00189e+08 105341 5.03044e+06 1.08291e+08 1.97551e+06 2.37119e+06)
(1.1759e+08 63043 1.07275e+06 1.16636e+08 2.29721e+06 1.20148e+07)
(1.1952e+08 16090.5 150963 1.17538e+08 2.3927e+06 1.31409e+07)
(1.19732e+08 2331.36 23019.6 1.17605e+08 2.40683e+06 1.31754e+07)
(1.19762e+08 450.435 9611 1.17617e+08 2.40784e+06 1.31783e+07)
(1.19762e+08 -571.203 6901.92 1.17612e+08 2.40956e+06 1.31747e+07)
(1.19768e+08 -581.757 5039.55 1.17624e+08 2.40445e+06 1.31809e+07)
(1.19767e+08 302.033 3149.96 1.17622e+08 2.40621e+06 1.31801e+07)
(1.19766e+08 -116.223 2751.15 1.1762e+08 2.40643e+06 1.31792e+07)
(1.19769e+08 -90.5913 -1810.77 1.17624e+08 2.40619e+06 1.31832e+07)
(1.1978e+08 1082.02 580.712 1.17639e+08 2.40565e+06 1.31997e+07)
(1.1977e+08 -13.562 4364.99 1.17623e+08 2.42975e+06 1.31839e+07)
(1.1977e+08 -1431.15 605.108 1.17625e+08 2.40624e+06 1.31841e+07)
(1.19768e+08 209.535 -275.674 1.17622e+08 2.40456e+06 1.31822e+07)
(1.19767e+08 459.924 -215.283 1.1762e+08 2.40737e+06 1.318e+07)
(1.19769e+08 -542.122 80.462 1.17624e+08 2.40621e+06 1.3182e+07)
(1.1977e+08 -573.186 -4134.69 1.17626e+08 2.40446e+06 1.31847e+07)
(1.19786e+08 474.356 -951.471 1.17647e+08 2.38656e+06 1.32112e+07)
(1.19773e+08 913.401 -1593.35 1.17629e+08 2.42596e+06 1.31901e+07)
(1.19783e+08 73.3232 -2735 1.17647e+08 2.42583e+06 1.3203e+07)
(1.19767e+08 -512.301 389.088 1.1762e+08 2.4078e+06 1.31817e+07)
(1.19768e+08 234.044 -4875.94 1.17625e+08 2.40462e+06 1.3181e+07)
(1.19764e+08 1698.98 -7419.59 1.17616e+08 2.40794e+06 1.31783e+07)
(1.1976e+08 208.18 -9182.76 1.17613e+08 2.43281e+06 1.31771e+07)
(1.19739e+08 -4028.44 -26146.2 1.17618e+08 2.42691e+06 1.31859e+07)
(1.19536e+08 -16541.3 -151147 1.17558e+08 2.37321e+06 1.317e+07)
(1.17592e+08 -62528.4 -1.06895e+06 1.16637e+08 2.29775e+06 1.202e+07)
(1.00189e+08 -105134 -5.03094e+06 1.08291e+08 1.97486e+06 2.37141e+06)
(5.58758e+07 -191182 -2.8307e+07 1.01558e+08 2.08363e+06 2.55198e+07)
(5.60817e+07 112020 2.8469e+07 1.0263e+08 1.30631e+06 2.59149e+07)
(1.00562e+08 66957.5 5.08999e+06 1.09415e+08 1.23142e+06 2.63044e+06)
(1.18099e+08 43659 1.09686e+06 1.17925e+08 1.44478e+06 1.23627e+07)
(1.20052e+08 11592.2 156684 1.18856e+08 1.51217e+06 1.35023e+07)
(1.2027e+08 1803.83 23866.6 1.18926e+08 1.5224e+06 1.35397e+07)
(1.20301e+08 466.116 9705.91 1.1894e+08 1.52335e+06 1.3542e+07)
(1.20304e+08 -358.492 6626.44 1.18938e+08 1.52465e+06 1.35405e+07)
(1.20307e+08 -348.99 4810.99 1.18945e+08 1.52148e+06 1.35433e+07)
(1.20307e+08 161.005 3229.73 1.18944e+08 1.52241e+06 1.35433e+07)
(1.20306e+08 -75.623 2681.24 1.18943e+08 1.52324e+06 1.35432e+07)
(1.20308e+08 527.921 1583.87 1.18946e+08 1.52253e+06 1.35467e+07)
(1.2031e+08 574.436 724.799 1.18947e+08 1.54299e+06 1.35483e+07)
(1.20305e+08 -567.482 958.809 1.18938e+08 1.52545e+06 1.35441e+07)
(1.20309e+08 -1268.46 440.978 1.18946e+08 1.52277e+06 1.35472e+07)
(1.20314e+08 112.121 -190.54 1.18953e+08 1.50325e+06 1.3556e+07)
(1.20307e+08 774.97 -120.557 1.18944e+08 1.52397e+06 1.35447e+07)
(1.20308e+08 -480.861 -139.554 1.18945e+08 1.52286e+06 1.3545e+07)
(1.20308e+08 603.291 -4205.33 1.18944e+08 1.52139e+06 1.35472e+07)
(1.20322e+08 -112.354 -912.109 1.18967e+08 1.54304e+06 1.35664e+07)
(1.20314e+08 7.82378 1865.02 1.1895e+08 1.50402e+06 1.35597e+07)
(1.20308e+08 591.647 -2523.79 1.18942e+08 1.54323e+06 1.35481e+07)
(1.20307e+08 -712.034 -3033.14 1.18943e+08 1.52316e+06 1.35457e+07)
(1.20307e+08 146.947 -4833.36 1.18946e+08 1.52174e+06 1.35439e+07)
(1.20305e+08 931.936 -7048.38 1.1894e+08 1.52368e+06 1.35422e+07)
(1.20297e+08 10.4789 -9294.39 1.18931e+08 1.52672e+06 1.3539e+07)
(1.20272e+08 -2012.05 -27278.5 1.18929e+08 1.52275e+06 1.35444e+07)
(1.20064e+08 -11973.5 -156737 1.18871e+08 1.53174e+06 1.35227e+07)
(1.181e+08 -44093.6 -1.09296e+06 1.17925e+08 1.44465e+06 1.23679e+07)
(1.00561e+08 -66455 -5.09047e+06 1.09415e+08 1.23074e+06 2.63005e+06)
(5.6082e+07 -112226 -2.84696e+07 1.02633e+08 1.30844e+06 2.59144e+07)
(5.62188e+07 64938.7 2.85635e+07 1.03314e+08 795468 2.61722e+07)
(1.00796e+08 41932 5.12712e+06 1.10108e+08 765885 2.7952e+06)
(1.18418e+08 29491 1.11371e+06 1.18731e+08 904238 1.25837e+07)
(1.20387e+08 7784.69 160943 1.19685e+08 951016 1.3733e+07)
(1.20616e+08 1340.37 24512.7 1.19768e+08 940185 1.37817e+07)
(1.20642e+08 799.614 9753.21 1.19772e+08 959076 1.37739e+07)
(1.20645e+08 -198.616 6431.58 1.19772e+08 959736 1.37732e+07)
(1.20647e+08 -222.238 4648.32 1.19776e+08 958107 1.37743e+07)
(1.20647e+08 99.2407 3283.37 1.19775e+08 958646 1.37746e+07)
(1.20647e+08 -74.0935 2621.94 1.19775e+08 959201 1.37755e+07)
(1.20648e+08 59.3322 1528.87 1.19776e+08 958592 1.37779e+07)
(1.20645e+08 342.445 909.948 1.19768e+08 959893 1.37758e+07)
(1.20647e+08 -75.136 991.007 1.19773e+08 960795 1.37769e+07)
(1.20649e+08 -446.149 -3280.52 1.19778e+08 959091 1.37787e+07)
(1.20659e+08 70.7368 -121.028 1.19793e+08 957984 1.37929e+07)
(1.20648e+08 194.238 3495.75 1.19776e+08 959790 1.37775e+07)
(1.20648e+08 -763.362 -290.736 1.19777e+08 959217 1.37769e+07)
(1.20654e+08 895.353 -725.682 1.19784e+08 940035 1.37878e+07)
(1.2065e+08 613.988 -4389.27 1.19777e+08 979481 1.37823e+07)
(1.20659e+08 -1095.97 -1538.15 1.19792e+08 958280 1.37961e+07)
(1.20651e+08 44.5322 1076.96 1.19777e+08 942555 1.37867e+07)
(1.20647e+08 148.468 -3126.06 1.19774e+08 958616 1.3777e+07)
(1.20647e+08 165.738 -4760.15 1.19776e+08 958401 1.37753e+07)
(1.20645e+08 515.301 -6735.68 1.19773e+08 959167 1.37742e+07)
(1.2064e+08 -134.238 -9320.74 1.19768e+08 961180 1.37726e+07)
(1.20612e+08 -1559.15 -24648.5 1.19761e+08 958418 1.3776e+07)
(1.20393e+08 -8624.39 -161036 1.19687e+08 952714 1.37469e+07)
(1.18419e+08 -29707.8 -1.11329e+06 1.18729e+08 903786 1.25885e+07)
(1.00795e+08 -40726.6 -5.12748e+06 1.10107e+08 765239 2.79422e+06)
(5.62146e+07 -65032.3 -2.8565e+07 1.03307e+08 817322 2.61613e+07)
(5.6307e+07 37309.9 2.86154e+07 1.03743e+08 501674 2.63328e+07)
(1.00941e+08 24821.1 5.15477e+06 1.10532e+08 470208 2.89688e+06)
(1.18616e+08 19268.1 1.12512e+06 1.1923e+08 557781 1.27212e+07)
(1.20596e+08 5644.45 160484 1.202e+08 589133 1.38779e+07)
(1.20833e+08 876.296 24967.5 1.20295e+08 593695 1.39333e+07)
(1.20853e+08 251.083 13308.5 1.20289e+08 594577 1.3919e+07)
(1.20857e+08 -65.6578 6313.99 1.20291e+08 595125 1.39186e+07)
(1.20859e+08 -140.392 4540.28 1.20293e+08 594241 1.39192e+07)
(1.20859e+08 63.7366 3309.91 1.20293e+08 594584 1.39197e+07)
(1.20859e+08 -118.806 2562.92 1.20293e+08 594932 1.39208e+07)
(1.2086e+08 -463.477 1568.62 1.20293e+08 594245 1.39228e+07)
(1.20864e+08 266.125 1044.76 1.20298e+08 577769 1.39311e+07)
(1.2086e+08 462.365 942.817 1.20293e+08 595743 1.39231e+07)
(1.20861e+08 189.87 25.1765 1.20295e+08 595012 1.39237e+07)
(1.20862e+08 36.9925 -76.3108 1.20295e+08 612941 1.39264e+07)
(1.2086e+08 -305.631 133.86 1.20294e+08 595393 1.39229e+07)
(1.2086e+08 -132.581 -3910.11 1.20295e+08 595111 1.39226e+07)
(1.20871e+08 401.815 -631.229 1.20311e+08 594157 1.39387e+07)
(1.20859e+08 445.796 2542.72 1.20289e+08 596627 1.39234e+07)
(1.20863e+08 -235.93 -5023.7 1.20295e+08 612649 1.39291e+07)
(1.20871e+08 -577.932 -2304.92 1.20309e+08 595857 1.39397e+07)
(1.20859e+08 -198.621 270.793 1.2029e+08 594212 1.39222e+07)
(1.20859e+08 278.741 -4670.68 1.20294e+08 594610 1.39206e+07)
(1.20858e+08 285.339 -6555.23 1.20291e+08 594645 1.39193e+07)
(1.20853e+08 -300.131 -9396.41 1.20288e+08 595819 1.39188e+07)
(1.20822e+08 -1369.71 -28667.8 1.20277e+08 593657 1.3921e+07)
(1.2061e+08 -6214.88 -164126 1.20217e+08 572435 1.39032e+07)
(1.18624e+08 -19266.2 -1.12131e+06 1.19238e+08 539444 1.27359e+07)
(1.00939e+08 -23977.2 -5.14974e+06 1.10531e+08 469578 2.89674e+06)
(5.62985e+07 -37355.7 -2.86204e+07 1.03726e+08 502957 2.63135e+07)
(5.63529e+07 20929.8 2.86503e+07 1.03981e+08 317036 2.64123e+07)
(1.01029e+08 13772.8 5.16263e+06 1.10785e+08 277702 2.95998e+06)
(1.18737e+08 11893.1 1.13248e+06 1.19531e+08 330621 1.28048e+07)
(1.20723e+08 3989.15 165979 1.20513e+08 350390 1.39655e+07)
(1.20952e+08 400.447 25247.8 1.20594e+08 371274 1.40109e+07)
(1.20982e+08 -186.777 9920.61 1.20602e+08 353818 1.40075e+07)
(1.20986e+08 130.185 6255.7 1.20606e+08 354299 1.40072e+07)
(1.20987e+08 -82.9536 4457.91 1.20607e+08 353754 1.40072e+07)
(1.20988e+08 39.7008 3327.86 1.20607e+08 353983 1.40077e+07)
(1.20988e+08 -245.7 2482.46 1.20608e+08 354288 1.4009e+07)
(1.20988e+08 40.1696 -1905.16 1.20605e+08 353584 1.40108e+07)
(1.21e+08 323.867 1151.33 1.20624e+08 354524 1.40269e+07)
(1.20989e+08 -41.0181 4404.91 1.20608e+08 354556 1.40115e+07)
(1.20989e+08 -436.586 7.79255 1.20609e+08 354347 1.40117e+07)
(1.20992e+08 -4.71902 -45.6992 1.2061e+08 337006 1.4018e+07)
(1.20989e+08 393.405 142.849 1.20608e+08 354424 1.40114e+07)
(1.20989e+08 540.056 -526.415 1.20609e+08 354402 1.40107e+07)
(1.20992e+08 165.428 -540.943 1.20613e+08 372079 1.40158e+07)
(1.20989e+08 -883.401 -902.202 1.20606e+08 355134 1.40123e+07)
(1.20993e+08 484.746 -1595.06 1.20611e+08 336538 1.40198e+07)
(1.20993e+08 -269.429 -2292.2 1.20613e+08 372834 1.40184e+07)
(1.20993e+08 -683.841 -3222.47 1.20613e+08 335784 1.40188e+07)
(1.20988e+08 618.256 -4616.81 1.20608e+08 354150 1.40094e+07)
(1.20986e+08 151.207 -6461.44 1.20606e+08 353745 1.40072e+07)
(1.20982e+08 -642.386 -9456.11 1.20604e+08 354613 1.40076e+07)
(1.20956e+08 -36.7081 -29013.8 1.20601e+08 335248 1.40174e+07)
(1.20736e+08 -3059.96 -169948 1.20532e+08 369078 1.39883e+07)
(1.1875e+08 -12802.5 -1.1288e+06 1.1955e+08 330039 1.28259e+07)
(1.01027e+08 -14182.8 -5.15898e+06 1.10784e+08 276917 2.95923e+06)
(5.63498e+07 -20840.6 -2.86522e+07 1.03979e+08 297385 2.64048e+07)
(5.63825e+07 10804.6 2.86677e+07 1.04124e+08 136618 2.64652e+07)
(1.01079e+08 7847.09 5.16979e+06 1.10927e+08 145658 2.99476e+06)
(1.18805e+08 6417.07 1.13683e+06 1.19701e+08 173873 1.28518e+07)
(1.20794e+08 1484.48 167244 1.2069e+08 184700 1.40153e+07)
(1.21026e+08 -177.78 25430.2 1.20771e+08 169004 1.40633e+07)
(1.21061e+08 642.576 9958.45 1.20789e+08 168974 1.4066e+07)
(1.2106e+08 542.667 6210.89 1.20785e+08 186871 1.40574e+07)
(1.2106e+08 -39.8156 4401.86 1.20785e+08 186602 1.40569e+07)
(1.21061e+08 19.7379 3350.11 1.20786e+08 186754 1.40575e+07)
(1.21061e+08 -589.573 2438.85 1.20786e+08 186996 1.40594e+07)
(1.21067e+08 584.011 1561.15 1.20793e+08 168927 1.40686e+07)
(1.21066e+08 618.255 1200.95 1.20791e+08 205017 1.40673e+07)
(1.21062e+08 -573.706 922.469 1.20786e+08 187022 1.40609e+07)
(1.21063e+08 -5.13955 -3441.18 1.20788e+08 187083 1.40618e+07)
(1.21072e+08 -75.2098 -52.4226 1.208e+08 187213 1.40756e+07)
(1.21062e+08 -3.11758 3593.89 1.20786e+08 186744 1.40613e+07)
(1.21062e+08 274.193 -514.876 1.20787e+08 187093 1.40603e+07)
(1.2106e+08 67.2766 -522.709 1.20782e+08 187334 1.40592e+07)
(1.21063e+08 -125.07 -4389.93 1.20786e+08 187097 1.40622e+07)
(1.21072e+08 204.275 -1563.98 1.20802e+08 186959 1.40766e+07)
(1.21062e+08 -187.246 -2345.89 1.20783e+08 187572 1.40623e+07)
(1.21071e+08 -275.245 -3240.6 1.20801e+08 186075 1.40753e+07)
(1.21062e+08 31.6207 -1083.43 1.20787e+08 186967 1.406e+07)
(1.21058e+08 72.2714 -6409.4 1.20783e+08 186255 1.40564e+07)
(1.21056e+08 -45.1647 -12985.8 1.20783e+08 187141 1.40579e+07)
(1.21035e+08 440.548 -25702.2 1.20789e+08 185668 1.40741e+07)
(1.20797e+08 -1268.95 -163995 1.2069e+08 203189 1.40232e+07)
(1.1881e+08 -7512.59 -1.13687e+06 1.19708e+08 191542 1.2862e+07)
(1.01076e+08 -7946.5 -5.1698e+06 1.10924e+08 144533 2.99259e+06)
(5.63794e+07 -10286.2 -2.86694e+07 1.04122e+08 156075 2.64562e+07)
(5.64005e+07 3359.26 2.86724e+07 1.04203e+08 49079.7 2.64982e+07)
(1.011e+08 2177.59 5.1782e+06 1.10991e+08 45250.4 3.00915e+06)
(1.18835e+08 1968.47 1.13884e+06 1.19778e+08 54212.7 1.28727e+07)
(1.20827e+08 140.162 164392 1.2077e+08 57411.1 1.40382e+07)
(1.21071e+08 180.326 22035.7 1.20874e+08 40685.4 1.41024e+07)
(1.211e+08 535.496 13416.8 1.20881e+08 58152 1.40969e+07)
(1.21092e+08 -7.25647 9674.31 1.20866e+08 58198.8 1.40797e+07)
(1.21093e+08 -21.4641 4379.87 1.20866e+08 58124.4 1.40791e+07)
(1.21093e+08 12.0681 3359.21 1.20866e+08 58213.4 1.40797e+07)
(1.21095e+08 -9.47229 -1068.39 1.20867e+08 58307.9 1.40821e+07)
(1.21106e+08 161.052 1573.04 1.20884e+08 58189.9 1.40988e+07)
(1.21093e+08 -19.5855 4697.05 1.20862e+08 58560.9 1.40828e+07)
(1.21094e+08 -160.969 909.69 1.20866e+08 58167.5 1.40829e+07)
(1.21096e+08 438.628 38.4921 1.20868e+08 58400.6 1.40842e+07)
(1.21098e+08 -227.286 -99.6423 1.20868e+08 76161.3 1.40893e+07)
(1.21094e+08 -406.241 139.865 1.20864e+08 57913.6 1.40835e+07)
(1.21095e+08 264.603 -433.221 1.20867e+08 58462.4 1.40829e+07)
(1.21094e+08 32.3292 -543.788 1.20865e+08 58493.4 1.40818e+07)
(1.21095e+08 571.816 -955.453 1.20867e+08 58157.4 1.4084e+07)
(1.21099e+08 73.312 -1492.41 1.20872e+08 76097.5 1.40898e+07)
(1.21095e+08 -280.653 -2405.68 1.20866e+08 58578.1 1.40845e+07)
(1.21097e+08 -86.7768 -3265.57 1.20868e+08 75448.2 1.40881e+07)
(1.21095e+08 -565.348 -4532.98 1.20867e+08 58369.1 1.40826e+07)
(1.21091e+08 18.0358 -6384.12 1.20862e+08 57624.9 1.40789e+07)
(1.21089e+08 551.071 -9540.87 1.20864e+08 58384.3 1.40808e+07)
(1.2106e+08 90.9239 -25766.7 1.20856e+08 75159.6 1.40866e+07)
(1.20824e+08 -718.044 -167965 1.20762e+08 57692.4 1.4038e+07)
(1.18836e+08 -2871.63 -1.13931e+06 1.19776e+08 54578.9 1.2876e+07)