/*--------------------------------*- C++ -*----------------------------------*\
| =========                 |                                                 |
| \\      /  F ield         | OpenFOAM: The Open Source CFD Toolbox           |
|  \\    /   O peration     | Version:  2106                                  |
|   \\  /    A nd           | Website:  www.openfoam.com                      |
|    \\/     M anipulation  |                                                 |
\*---------------------------------------------------------------------------*/
FoamFile
{
    version     2.0;
    format      ascii;
    arch        "LSB;label=32;scalar=64";
    class       volTensorField;
    location    "193";
    object      testEpsilon;
}
// * * * * * * * * * * * * * * * * * * * * * * * * * * * * * * * * * * * * * //

dimensions      [0 0 0 0 0 0 0];

internalField   nonuniform List<tensor> 
9000
(
(-0.0856888 0.00384679 -0.105726 -0.00439117 -0.147299 -0.258051 0.202293 0.381102 -0.0248567)
(-0.0168076 0.00368617 -0.00286373 -0.00261245 -0.156622 -0.270855 0.0217006 0.401324 -0.0693954)
(-0.00193546 0.00249059 0.00205024 -0.00181748 -0.166572 -0.28762 0.00309471 0.426175 -0.0590876)
(-0.000322626 0.000470516 0.000327423 -0.000368253 -0.168194 -0.291404 0.000563843 0.431745 -0.0569497)
(-5.52934e-05 -3.41052e-05 -2.47636e-05 1.91234e-05 -0.16828 -0.291527 8.98507e-05 0.431927 -0.0569522)
(-4.15906e-06 -1.70114e-05 -9.31027e-06 1.33672e-05 -0.168111 -0.290786 3.64225e-05 0.43078 -0.0571972)
(-1.82976e-06 -1.33881e-06 -2.57607e-07 1.48271e-06 -0.168259 -0.29139 3.11248e-05 0.431726 -0.0570256)
(3.78652e-07 -3.30464e-05 -2.11727e-05 2.15995e-05 -0.168105 -0.290772 1.46825e-05 0.430767 -0.057196)
(-3.94508e-07 3.91567e-05 2.47876e-05 -2.64639e-05 -0.168107 -0.290774 2.38264e-05 0.430769 -0.0571938)
(-5.59121e-06 1.9072e-05 1.02452e-05 -5.71374e-06 -0.168273 -0.291444 -3.60412e-05 0.431804 -0.0569929)
(2.57703e-06 -5.5775e-05 -3.70746e-05 4.43248e-05 -0.168173 -0.291046 -5.64643e-05 0.43119 -0.057081)
(6.64065e-06 1.6295e-05 1.23897e-05 -1.76887e-05 -0.168015 -0.290407 5.84921e-05 0.430199 -0.0572622)
(-4.18986e-06 5.04946e-05 3.3189e-05 -4.07535e-05 -0.16827 -0.291415 6.30538e-05 0.431762 -0.0570049)
(-3.01085e-06 -1.20775e-05 -1.02853e-05 1.38996e-05 -0.168277 -0.291387 -5.1957e-05 0.431738 -0.0570163)
(3.47061e-06 7.51581e-06 5.17785e-06 -5.62336e-06 -0.168181 -0.29108 3.14466e-06 0.431236 -0.0570718)
(-2.6711e-06 1.0424e-05 8.32782e-06 -1.31505e-05 -0.16828 -0.291462 5.06582e-05 0.43183 -0.0569852)
(-1.56677e-06 -1.74761e-05 -1.34017e-05 1.83745e-05 -0.168276 -0.291385 -5.5899e-05 0.431735 -0.0570187)
(3.85858e-07 3.73514e-06 3.38506e-06 -2.04991e-06 -0.168182 -0.291085 2.59037e-07 0.431243 -0.0570693)
(-1.95312e-06 -4.2418e-05 -2.62759e-05 2.94006e-05 -0.168272 -0.291432 -1.33369e-05 0.431788 -0.0569934)
(4.64253e-06 -3.85154e-05 -2.43711e-05 2.59744e-05 -0.168007 -0.290388 -1.54309e-05 0.430173 -0.0572749)
(2.41881e-06 5.60098e-05 3.71037e-05 -4.4858e-05 -0.168106 -0.290766 5.08016e-05 0.430761 -0.0571913)
(-5.43564e-06 4.02081e-05 2.47332e-05 -2.77102e-05 -0.168273 -0.291431 -6.36408e-06 0.431781 -0.0570067)
(-2.82232e-06 -3.54123e-05 -2.24125e-05 2.36638e-05 -0.168271 -0.291441 -2.84808e-05 0.431799 -0.0570022)
(4.68346e-07 -6.48933e-06 -3.82792e-06 4.92773e-06 -0.168112 -0.290791 -3.14726e-05 0.43079 -0.057191)
(-7.54994e-06 1.2241e-05 6.98028e-06 -8.96404e-06 -0.168259 -0.291389 -3.59422e-05 0.431722 -0.0570286)
(-5.44515e-05 -2.15015e-05 -1.2348e-05 2.52832e-05 -0.168124 -0.290891 -0.000152512 0.430941 -0.0571268)
(-0.000316586 -0.000444231 -0.000310877 0.000351729 -0.168083 -0.290971 -0.000559934 0.431082 -0.05705)
(-0.00193571 -0.00246662 -0.00203366 0.00179345 -0.166567 -0.287531 -0.0030383 0.426064 -0.0591184)
(-0.0168103 -0.00367749 0.00286938 0.00260561 -0.156622 -0.270853 -0.021698 0.401323 -0.0693935)
(-0.0856891 -0.00384772 0.105728 0.0043919 -0.147299 -0.258046 -0.202296 0.381092 -0.0248581)
(-0.0724414 0.00190825 -0.103419 -0.0019532 -0.0982065 -0.0792705 0.1966 0.215908 -0.128806)
(-0.0164286 0.00216187 -0.00426978 -0.000801234 -0.103305 -0.0827764 0.0203845 0.226518 -0.174938)
(-0.00180824 0.0015376 0.000981798 -0.000670969 -0.109368 -0.0878305 0.00210252 0.240583 -0.171234)
(-0.000207724 0.00031785 0.000120855 -0.00017489 -0.11054 -0.0890272 0.000324002 0.244088 -0.170529)
(-2.76972e-05 -1.42684e-05 2.31063e-06 2.56222e-06 -0.110566 -0.0890682 4.24945e-05 0.244202 -0.17057)
(-4.40901e-06 -1.36306e-05 -2.00784e-06 6.52379e-06 -0.110357 -0.0888951 4.47486e-05 0.243915 -0.170569)
(-1.78862e-06 1.86319e-07 1.25049e-06 1.1851e-06 -0.110534 -0.0890253 3.19312e-05 0.244052 -0.170593)
(-1.16441e-06 -1.05063e-05 6.39289e-06 8.21789e-06 -0.110333 -0.088893 -2.6476e-05 0.243916 -0.170567)
(-6.46492e-07 1.47751e-05 -5.86821e-06 -1.08884e-05 -0.110337 -0.0888959 6.10271e-05 0.243916 -0.170566)
(-9.22239e-07 1.13603e-05 -2.13391e-06 2.78572e-06 -0.110546 -0.0890404 5.63015e-05 0.244102 -0.170585)
(-9.61783e-08 -1.6272e-05 9.80644e-06 2.275e-05 -0.11046 -0.0889631 -4.09522e-05 0.244379 -0.170545)
(2.46332e-07 3.21629e-08 -4.1944e-06 -1.20343e-05 -0.110259 -0.0888258 5.747e-06 0.244218 -0.17052)
(-7.09057e-07 9.296e-06 -9.02222e-06 -2.32147e-05 -0.11055 -0.0890239 4.89867e-05 0.244063 -0.170584)
(-2.79722e-07 2.95378e-06 4.24767e-06 9.5671e-06 -0.11052 -0.0890073 -2.14091e-06 0.243756 -0.170569)
(3.1082e-07 8.44318e-06 -5.7326e-07 -9.85679e-07 -0.11047 -0.0889747 -8.15163e-10 0.244412 -0.170547)
(-3.69821e-07 -6.29255e-06 -2.84825e-06 -1.13604e-05 -0.110551 -0.0890475 2.1706e-07 0.244119 -0.170584)
(-1.35067e-08 -1.73551e-06 3.37514e-06 1.20987e-05 -0.110519 -0.089007 -2.64183e-06 0.243756 -0.17057)
(9.96513e-08 5.78086e-06 -5.93426e-07 1.58562e-06 -0.110472 -0.0889758 6.00934e-08 0.244417 -0.170547)
(-5.73105e-07 -1.69797e-05 6.06343e-06 1.26629e-05 -0.110541 -0.0890361 -4.85433e-05 0.24409 -0.170583)
(-3.73337e-07 -1.4391e-05 5.99987e-06 1.06185e-05 -0.110251 -0.0888188 -5.30513e-05 0.244206 -0.170524)
(-4.50412e-07 1.5137e-05 -1.07371e-05 -2.33545e-05 -0.110331 -0.0888899 3.50349e-05 0.243908 -0.170562)
(-8.68846e-07 1.57221e-05 -6.37487e-06 -1.18211e-05 -0.110557 -0.0890317 3.01713e-05 0.244079 -0.17059)
(-9.60669e-07 -1.17428e-05 6.58695e-06 9.70006e-06 -0.110544 -0.0890397 -6.75259e-05 0.244103 -0.17059)
(-1.29366e-06 -5.52509e-06 -1.20734e-06 2.17789e-06 -0.110346 -0.0889027 -2.7874e-05 0.243928 -0.170568)
(-4.97813e-06 1.02954e-05 2.0586e-06 -3.64315e-06 -0.110546 -0.0890185 -4.0878e-05 0.244042 -0.170592)
(-2.79383e-05 -1.8464e-06 7.38435e-06 2.07114e-05 -0.110366 -0.0889312 -8.91019e-05 0.244041 -0.170542)
(-0.000207418 -0.000315072 -0.00012635 0.000167068 -0.110442 -0.088935 -0.000276578 0.244332 -0.170487)
(-0.00180831 -0.00153138 -0.0009854 0.000655663 -0.109332 -0.087785 -0.00210441 0.240205 -0.171217)
(-0.0164288 -0.00215295 0.00426881 0.00079942 -0.103305 -0.0827746 -0.0203859 0.226516 -0.174935)
(-0.0724407 -0.00190944 0.10342 0.00195407 -0.0982108 -0.0792713 -0.196603 0.215898 -0.128806)
(-0.0763345 -0.00106687 -0.104261 0.00339598 -0.057634 -0.00942461 0.197957 0.126022 -0.153297)
(-0.0165512 0.00145396 -0.00457572 0.000284793 -0.0602814 -0.0111624 0.020366 0.132702 -0.201963)
(-0.00181019 0.0010436 0.000800094 -2.64706e-06 -0.0634437 -0.0116661 0.00193661 0.141354 -0.199911)
(-0.00018792 0.000230817 7.98808e-05 -3.32853e-05 -0.0641823 -0.0118349 0.000244261 0.143895 -0.199595)
(-1.90107e-05 2.58249e-06 1.65387e-06 -3.34782e-06 -0.0641863 -0.0118457 8.91051e-05 0.144 -0.19965)
(-4.43448e-06 -1.05978e-05 -7.31229e-07 1.39337e-06 -0.0640871 -0.0118628 4.7775e-05 0.144255 -0.1996)
(-1.49094e-06 3.40122e-06 1.64117e-07 1.47109e-06 -0.0641644 -0.0118357 3.19487e-05 0.143889 -0.199658)
(-2.03605e-06 6.28915e-06 4.71549e-06 1.7256e-06 -0.0640806 -0.0118767 2.54538e-05 0.144457 -0.19962)
(-1.48094e-06 -3.32019e-06 -4.69159e-06 -2.7002e-06 -0.0640906 -0.0118737 6.83566e-06 0.14445 -0.19962)
(1.13648e-06 -5.52609e-06 -3.19488e-06 5.28469e-07 -0.0641635 -0.0118398 7.3482e-06 0.143928 -0.199658)
(-3.86969e-07 1.4476e-06 5.83031e-06 4.99127e-06 -0.064157 -0.0118579 1.69895e-05 0.143897 -0.199646)
(-2.5523e-06 -1.66529e-06 2.26303e-07 -3.88056e-06 -0.0640809 -0.0118949 1.3478e-06 0.144438 -0.199604)
(1.30418e-07 -1.62609e-06 -3.09641e-06 -5.41763e-06 -0.0641469 -0.0118296 -3.81244e-05 0.143713 -0.199631)
(1.43496e-06 4.007e-06 -4.40022e-07 3.09435e-06 -0.0640942 -0.0118405 8.69904e-07 0.143924 -0.199638)
(-7.14897e-07 1.24384e-06 -2.86458e-06 -1.5022e-07 -0.06416 -0.0118574 2.81747e-05 0.143921 -0.19965)
(-5.4223e-08 6.19853e-07 1.85808e-06 -2.52124e-06 -0.0641658 -0.0118415 -3.25846e-05 0.14394 -0.199659)
(1.02244e-06 -1.51156e-06 9.39542e-07 2.60928e-06 -0.0640939 -0.0118414 1.80822e-06 0.143925 -0.199639)
(4.98696e-07 -7.21677e-07 -2.42523e-06 8.02719e-07 -0.0641613 -0.0118567 2.978e-05 0.143923 -0.199649)
(-1.46547e-07 1.76244e-06 5.1182e-06 2.94474e-06 -0.06416 -0.0118403 6.17044e-06 0.14392 -0.199656)
(-2.56095e-06 3.53901e-06 4.87101e-06 2.51198e-06 -0.0640748 -0.0118941 8.29204e-07 0.144437 -0.199606)
(-2.06909e-06 -5.25894e-06 -5.48319e-06 -6.25373e-06 -0.0640781 -0.0118771 -2.29841e-05 0.144452 -0.199616)
(1.17527e-06 -2.43269e-06 -5.22747e-06 -2.65958e-06 -0.0641546 -0.0118304 -2.37285e-05 0.14372 -0.199639)
(-2.25304e-08 6.71548e-06 3.38486e-06 3.73347e-06 -0.0641611 -0.0118389 -1.36016e-05 0.143931 -0.199661)
(-2.2003e-06 -6.87018e-06 4.01628e-07 -1.02903e-06 -0.0640974 -0.0118735 -2.6488e-05 0.144453 -0.199621)
(-3.84325e-06 8.35911e-06 1.29714e-06 -6.03333e-07 -0.0641565 -0.0118263 -4.23203e-05 0.143693 -0.199635)
(-2.03092e-05 -7.36105e-07 4.36066e-06 8.95614e-06 -0.0641108 -0.0118817 -7.7286e-05 0.14454 -0.199606)
(-0.000189596 -0.00023743 -8.16543e-05 3.10562e-05 -0.0641652 -0.0118507 -0.000279151 0.143847 -0.199576)
(-0.00180924 -0.00103916 -0.000801594 -9.79744e-09 -0.0633694 -0.0116656 -0.00194284 0.141327 -0.199886)
(-0.0165506 -0.00145328 0.00457212 -0.000285206 -0.0602799 -0.0111615 -0.0203385 0.132701 -0.201959)
(-0.0763328 0.00106421 0.104261 -0.00339376 -0.0576439 -0.00941972 -0.197958 0.126005 -0.153295)
(-0.0819055 -0.00281663 -0.107864 0.00643859 -0.0352203 0.00543605 0.204793 0.0765861 -0.154214)
(-0.0171083 0.000999946 -0.00471807 0.000757376 -0.0372794 0.00345379 0.0210519 0.081267 -0.205399)
(-0.00187186 0.000757414 0.000847296 0.00023361 -0.0391615 0.00392967 0.0021282 0.0874845 -0.203494)
(-0.000207864 0.000169319 8.49272e-05 3.25015e-05 -0.0396857 0.0040138 0.000279486 0.0891658 -0.203199)
(-2.07614e-05 4.76814e-06 -3.27414e-06 -4.98062e-06 -0.039697 0.00401505 6.34096e-05 0.0892633 -0.203258)
(-3.44523e-06 -9.24821e-06 -1.60074e-08 -2.29552e-06 -0.0396415 0.00398408 4.7036e-05 0.0891003 -0.203239)
(-1.72217e-06 1.49366e-06 -1.52431e-06 1.11371e-06 -0.0396678 0.00401574 5.18692e-05 0.0890482 -0.203249)
(-1.99867e-06 4.25401e-06 -1.18883e-06 -2.36651e-06 -0.0396823 0.00398174 2.26579e-05 0.0892393 -0.203273)
(-8.85918e-07 -1.80209e-06 1.51313e-06 2.52523e-06 -0.0396772 0.00398599 8.72447e-06 0.0890966 -0.203254)
(6.16055e-07 -1.92501e-06 1.01614e-06 3.32441e-06 -0.0396735 0.00400964 9.65145e-06 0.0892177 -0.203269)
(-9.77984e-07 2.43218e-07 -1.22762e-06 -3.02364e-06 -0.0396711 0.00400819 1.46473e-05 0.0891923 -0.203266)
(-1.83545e-06 2.05241e-06 1.46377e-06 -4.09377e-07 -0.0396806 0.00397548 -1.94954e-05 0.0892244 -0.203268)
(6.85925e-07 6.62973e-06 1.85741e-06 3.98055e-06 -0.0396315 0.00400239 -7.39035e-06 0.0892128 -0.203252)
(7.7376e-07 3.43858e-07 -1.30006e-06 7.79801e-07 -0.0396486 0.00398892 2.16129e-05 0.0895568 -0.203271)
(-8.12297e-07 -5.87868e-06 -7.73667e-07 -8.95236e-07 -0.0396668 0.00400671 -3.793e-07 0.0892162 -0.20327)
(1.8208e-07 6.92596e-06 3.36925e-07 1.11492e-06 -0.0396749 0.0040095 -4.06332e-06 0.0892284 -0.203271)
(6.51285e-07 -8.39522e-07 3.48627e-07 -1.41761e-07 -0.0396494 0.00398865 1.86666e-06 0.0895582 -0.203273)
(1.66743e-07 -7.44262e-06 -3.64246e-07 -1.09309e-06 -0.0396674 0.00400689 1.27125e-06 0.0892173 -0.203269)
(-2.31252e-07 3.1816e-07 -1.41632e-06 -3.16596e-06 -0.0396718 0.00400862 3.65459e-06 0.0892134 -0.203268)
(-2.21303e-06 1.98205e-06 -1.3561e-06 -2.69271e-06 -0.0396772 0.00397546 -1.31866e-06 0.089226 -0.20327)
(-1.48472e-06 -8.1125e-07 1.99354e-06 2.75525e-06 -0.0396814 0.00397974 -4.06954e-05 0.0892376 -0.20327)
(1.12859e-06 -8.76768e-07 1.25323e-06 3.26334e-06 -0.0396397 0.00400936 -2.0845e-05 0.0892111 -0.203256)
(-6.34559e-07 -2.99511e-07 -2.03772e-06 -2.66596e-06 -0.0396701 0.00401134 5.44446e-06 0.0892225 -0.203271)
(-2.16103e-06 -4.59315e-06 1.31801e-06 -2.46963e-06 -0.0396813 0.00398676 -4.71776e-05 0.0890949 -0.203253)
(-2.9811e-06 7.61116e-06 4.33758e-07 1.75532e-06 -0.0396328 0.00401089 -4.17688e-05 0.0890539 -0.203232)
(-2.16063e-05 -3.58658e-06 2.50849e-06 2.40777e-06 -0.0397057 0.00398404 -5.37832e-05 0.0892932 -0.203258)
(-0.000209211 -0.000166803 -8.31332e-05 -2.9666e-05 -0.0396751 0.00400437 -0.000283374 0.0891335 -0.203192)
(-0.00187157 -0.000754312 -0.000847574 -0.000231963 -0.0391357 0.00390653 -0.00213246 0.087802 -0.203491)
(-0.0171075 -0.00100785 0.00471798 -0.000759322 -0.0372784 0.00345375 -0.0210535 0.0812672 -0.205395)
(-0.0819123 0.0028109 0.107865 -0.00643318 -0.0352125 0.00544209 -0.204793 0.0764385 -0.154192)
(-0.0860869 -0.00311305 -0.112285 0.00666628 -0.022095 0.00483014 0.21321 0.0480835 -0.152218)
(-0.0177922 0.000665733 -0.004877 0.000873167 -0.023612 0.00285412 0.0220371 0.050824 -0.205763)
(-0.00195517 0.000562339 0.000912096 0.000262932 -0.0249695 0.00331239 0.00240512 0.0556075 -0.203785)
(-0.000235638 0.000123715 9.69558e-05 4.97046e-05 -0.0253255 0.00340294 0.00030863 0.0566594 -0.203448)
(-2.59701e-05 1.1423e-05 -4.28905e-06 6.22684e-07 -0.0253294 0.00340516 6.38885e-05 0.056641 -0.203497)
(-3.21562e-06 -4.75903e-06 -5.92056e-07 -2.62188e-06 -0.0252874 0.00339201 2.78571e-05 0.0569393 -0.203527)
(-1.50514e-06 -4.75464e-06 -3.05623e-07 -1.17986e-06 -0.0252901 0.00340038 4.79379e-05 0.0565911 -0.203496)
(-1.75375e-06 4.41185e-06 -1.23514e-06 -1.79761e-07 -0.0253236 0.00340707 1.97247e-05 0.0567284 -0.203531)
(-3.42759e-07 -1.5627e-06 8.88416e-07 1.54149e-06 -0.0252984 0.00340273 1.16848e-05 0.0567296 -0.203521)
(2.67089e-08 -4.30326e-06 1.24419e-06 2.59622e-07 -0.025326 0.00340268 2.86765e-05 0.0567181 -0.203524)
(-1.13373e-06 2.75471e-08 -1.00046e-06 -2.70176e-06 -0.0253098 0.00340281 1.06089e-05 0.0565954 -0.203509)
(-1.15146e-06 6.2399e-06 -9.33086e-07 2.08379e-06 -0.0253281 0.00340732 1.13965e-06 0.0567159 -0.203527)
(3.68254e-07 4.77739e-06 -4.08655e-07 3.0634e-06 -0.0253154 0.00338824 -3.53488e-06 0.0569229 -0.203532)
(4.598e-07 -3.04609e-06 4.2352e-07 -4.44103e-07 -0.0253398 0.00339432 1.59261e-06 0.0567666 -0.20353)
(-6.47873e-07 -4.01629e-06 1.2513e-06 -2.96384e-08 -0.0253177 0.00340053 2.43705e-08 0.0567241 -0.203528)
(9.64721e-08 4.09485e-06 -1.75311e-06 5.94929e-07 -0.0253284 0.00340288 -3.46471e-06 0.0567268 -0.203526)
(5.80837e-07 -1.87449e-08 4.17282e-07 -4.10574e-07 -0.0253404 0.00339469 1.00117e-06 0.0567669 -0.203532)
(-1.06143e-07 -5.18962e-06 1.5681e-06 -6.91369e-07 -0.0253179 0.00340037 1.11149e-06 0.0567249 -0.203528)
(-4.66471e-07 -2.03189e-07 -1.16706e-06 -2.59233e-06 -0.0253264 0.00340189 -8.15372e-08 0.0567155 -0.203524)
(-1.37671e-06 1.60732e-06 -9.04567e-07 -1.80475e-06 -0.0253228 0.00340475 -4.48001e-06 0.0567212 -0.203531)
(-8.77884e-07 2.2482e-06 1.29543e-06 2.88967e-06 -0.0253264 0.00340418 -1.6301e-05 0.0567279 -0.20353)
(9.10248e-08 -1.63499e-07 1.09294e-06 2.75023e-06 -0.0253035 0.00339182 -1.67974e-05 0.056814 -0.20352)
(-1.16912e-06 -1.59444e-06 -1.13411e-06 -1.74467e-06 -0.0253194 0.00340099 -3.36408e-05 0.0567267 -0.203527)
(-1.31604e-06 5.92249e-07 3.11959e-07 -1.57105e-06 -0.025305 0.00340556 -4.49067e-05 0.0567242 -0.203517)
(-2.86777e-06 3.46202e-06 7.52082e-07 1.5394e-06 -0.0252831 0.0033877 -2.34569e-05 0.0568013 -0.203502)
(-2.65935e-05 -9.19437e-06 3.0558e-06 -2.1357e-06 -0.0253426 0.00340806 -5.83179e-05 0.0567621 -0.203513)
(-0.00023647 -0.000123411 -9.7156e-05 -4.97739e-05 -0.0253253 0.00340142 -0.000310731 0.0566356 -0.203443)
(-0.00195517 -0.000559825 -0.000911717 -0.00026086 -0.0249863 0.00330552 -0.00240854 0.0556365 -0.203785)
(-0.0177909 -0.000668646 0.00487924 -0.000872942 -0.0236118 0.00285376 -0.0220586 0.0508235 -0.20576)
(-0.0860966 0.00311086 0.112268 -0.00666226 -0.0220655 0.00482545 -0.213175 0.0480807 -0.1522)
(-0.0887727 -0.00259592 -0.116145 0.00539164 -0.013976 0.00256204 0.220567 0.0304741 -0.151197)
(-0.018389 0.000425028 -0.00502162 0.000791711 -0.0149066 0.000986169 0.0229828 0.0318584 -0.206587)
(-0.00203655 0.000414709 0.00095706 0.000225594 -0.0159647 0.00130256 0.0026617 0.0351552 -0.204528)
(-0.000260326 9.73494e-05 0.000103481 4.99443e-05 -0.0162194 0.00135196 0.000347748 0.0361708 -0.204201)
(-3.12267e-05 1.23868e-05 -5.46063e-06 3.74945e-06 -0.0162103 0.00134841 8.20794e-05 0.0362567 -0.204262)
(-3.80574e-06 -1.39464e-06 -9.72253e-07 -2.05232e-06 -0.0162291 0.00134734 4.21192e-05 0.0364154 -0.204297)
(-1.23375e-06 -5.74374e-06 1.48764e-06 -1.98838e-06 -0.0161854 0.00134142 3.00731e-05 0.0362789 -0.204269)
(-1.4544e-06 2.59429e-06 -7.18361e-07 1.01037e-06 -0.0162225 0.00135582 3.41575e-05 0.0362407 -0.204288)
(-7.98041e-07 -2.28483e-06 6.3561e-07 -5.24982e-07 -0.0162159 0.00134945 1.27993e-05 0.0363888 -0.204297)
(-2.32596e-07 -4.20215e-06 1.03125e-06 -1.27011e-06 -0.0162166 0.0013514 -2.86772e-06 0.036139 -0.204271)
(-6.1315e-07 -1.68935e-07 -3.00059e-07 -1.50467e-06 -0.0161958 0.00134767 8.32282e-06 0.0362285 -0.204274)
(-6.82415e-07 9.25224e-07 -1.45072e-06 -3.41068e-07 -0.0162193 0.0013558 1.71476e-05 0.0361377 -0.20427)
(1.80346e-07 4.29752e-06 -7.43364e-07 3.15842e-06 -0.0162359 0.00135147 -1.13147e-06 0.0361588 -0.20427)
(1.55153e-07 -1.04664e-07 1.15867e-06 1.19663e-06 -0.0162334 0.00135834 1.62289e-06 0.0362605 -0.204287)
(-6.04491e-07 -3.60571e-06 9.39239e-07 -1.25377e-06 -0.0162202 0.00135081 3.00283e-07 0.036239 -0.204288)
(1.05892e-07 2.37629e-06 -8.32001e-07 8.43086e-07 -0.0162189 0.00135212 -3.04834e-06 0.0361455 -0.204273)
(3.94026e-07 1.2502e-06 -1.53198e-07 5.98685e-07 -0.0162335 0.00135861 5.38596e-07 0.0362605 -0.204289)
(-2.69607e-07 -4.64488e-06 1.07599e-06 -2.07011e-06 -0.0162203 0.00135091 6.95997e-07 0.0362396 -0.204287)
(-4.53927e-07 -6.49029e-07 -5.41139e-07 -1.52877e-06 -0.0162194 0.00135008 -2.02639e-06 0.0361368 -0.20427)
(-1.11663e-06 1.98114e-06 -8.98337e-07 7.56992e-08 -0.0162274 0.00135812 -5.80613e-06 0.0362336 -0.204284)
(-5.73729e-07 3.04943e-06 -5.91265e-07 1.9522e-06 -0.0162313 0.00135593 -2.90001e-05 0.036237 -0.204284)
(2.01727e-07 5.37837e-07 6.1602e-07 1.76369e-06 -0.0162131 0.00134606 -1.45445e-05 0.0362597 -0.204278)
(-1.49881e-06 -6.13418e-07 7.10231e-07 -6.63465e-07 -0.0162209 0.00135042 -2.80315e-06 0.0362395 -0.204286)
(-1.50421e-06 2.66337e-06 -1.3401e-06 -8.07813e-07 -0.0162121 0.00135046 -4.39704e-05 0.0362905 -0.204279)
(-3.09403e-06 1.03926e-07 9.32179e-07 8.35411e-07 -0.0162062 0.00134132 -3.85651e-05 0.0363015 -0.204266)
(-3.1869e-05 -1.2018e-05 5.2532e-06 -4.93071e-06 -0.0162401 0.00135866 -6.36281e-05 0.0362572 -0.204266)
(-0.000260956 -9.55361e-05 -0.000103641 -4.97037e-05 -0.0162145 0.00135117 -0.000365167 0.0360608 -0.204184)
(-0.0020362 -0.000411619 -0.000957107 -0.000223034 -0.0159744 0.00131039 -0.00266344 0.0351684 -0.204526)
(-0.0183878 -0.000423706 0.00502197 -0.000790495 -0.0149071 0.000985437 -0.0229834 0.0318583 -0.206584)
(-0.0887725 0.00259949 0.116136 -0.00539317 -0.0139663 0.00255351 -0.220549 0.0306168 -0.151203)
(-0.0904311 -0.00186155 -0.118978 0.00379161 -0.00883839 0.00124386 0.225969 0.019306 -0.150921)
(-0.0188254 0.000267984 -0.00512889 0.000627638 -0.00931547 0.000146521 0.0237519 0.019896 -0.207586)
(-0.00210352 0.000299778 0.000985254 0.000176761 -0.010118 0.000351492 0.00286753 0.0223297 -0.205507)
(-0.000280007 7.45965e-05 0.000106125 4.15089e-05 -0.010331 0.000375843 0.000425406 0.0230218 -0.205182)
(-3.63694e-05 9.49516e-06 -5.21345e-06 4.09977e-06 -0.0103383 0.000371681 8.55638e-05 0.0232121 -0.205262)
(-4.36318e-06 2.22014e-07 -1.98891e-06 -1.1024e-06 -0.010357 0.000381506 2.61305e-05 0.0231162 -0.205272)
(-8.926e-07 -3.44693e-06 1.39086e-06 -1.55253e-06 -0.0103214 0.000368054 2.8861e-05 0.0232101 -0.205268)
(-1.46107e-06 -1.68325e-06 3.70698e-07 -6.65307e-07 -0.0103383 0.00037641 3.3434e-05 0.0230864 -0.205272)
(-7.98854e-07 -3.85454e-07 4.21094e-09 -2.2222e-07 -0.0103481 0.000376786 -1.44706e-06 0.0231017 -0.205274)
(-1.69229e-07 -2.94586e-07 8.87625e-07 6.41388e-08 -0.010319 0.000372114 1.15839e-05 0.0230827 -0.205261)
(-9.47919e-07 -4.93921e-07 -1.20593e-07 -9.49983e-07 -0.0103276 0.000370843 7.44519e-06 0.0231962 -0.205274)
(-2.18839e-07 -1.78584e-06 -1.73592e-07 -1.58286e-06 -0.0103247 0.000375195 -1.22028e-05 0.02308 -0.205255)
(6.75793e-07 1.94303e-06 9.87391e-08 1.9202e-06 -0.0103241 0.000378736 1.48328e-05 0.0230085 -0.205246)
(-4.22639e-07 1.06401e-07 2.92183e-07 1.05451e-06 -0.0103441 0.000379297 1.64528e-05 0.0230989 -0.20527)
(-7.18582e-07 -1.10492e-06 8.75495e-09 -6.0572e-07 -0.0103371 0.000374659 -1.43163e-05 0.023086 -0.205272)
(4.66964e-07 1.43212e-06 -1.92969e-07 8.83017e-07 -0.0103203 0.000372801 -2.31622e-06 0.0230876 -0.205262)
(-1.80172e-09 -2.95918e-07 1.73707e-07 -9.88111e-08 -0.0103441 0.000379214 1.46485e-05 0.023099 -0.205272)
(-5.31634e-07 -2.36893e-06 -1.38253e-07 -1.62304e-06 -0.0103369 0.000375311 -1.44499e-05 0.0230864 -0.205271)
(-3.73104e-08 -1.63475e-06 2.75625e-07 -1.64784e-06 -0.0103261 0.000372209 -2.95182e-06 0.0230786 -0.205257)
(-6.80514e-07 -7.64462e-07 2.65399e-07 -9.14419e-07 -0.0103348 0.000377557 8.05213e-06 0.0229984 -0.205254)
(-5.40287e-07 5.11332e-06 -1.11701e-06 3.22189e-06 -0.0103413 0.000378224 -1.25689e-05 0.0229977 -0.205254)
(-4.32109e-07 1.91439e-06 -8.45012e-09 2.08909e-06 -0.0103389 0.000376818 -1.34563e-05 0.0232124 -0.205277)
(-1.68342e-06 -1.39953e-06 -2.54196e-07 -1.15993e-06 -0.0103371 0.000374708 -3.23215e-05 0.0230855 -0.205272)
(-1.01626e-06 3.5206e-06 -1.50785e-06 3.04442e-07 -0.0103307 0.000373769 -4.3387e-05 0.0231001 -0.20526)
(-3.69235e-06 -2.13161e-06 2.39233e-06 -5.89519e-07 -0.0103273 0.000373846 -2.34858e-05 0.0231368 -0.205252)
(-3.67013e-05 -1.08465e-05 5.02498e-06 -5.38408e-06 -0.0103423 0.000377838 -8.31568e-05 0.023011 -0.205237)
(-0.00028009 -7.0271e-05 -0.000106809 -3.92054e-05 -0.0103189 0.000373492 -0.000427238 0.0230096 -0.205166)
(-0.00210333 -0.000298344 -0.000984863 -0.000175254 -0.0101235 0.000355572 -0.00285382 0.0223377 -0.205502)
(-0.0188249 -0.000267022 0.00512786 -0.000627613 -0.00931626 0.000145866 -0.0237522 0.019895 -0.207584)
(-0.0904278 0.00186522 0.118973 -0.00379527 -0.00884699 0.00124278 -0.225961 0.0193221 -0.150923)
(-0.091451 -0.00121775 -0.120851 0.00244439 -0.00558099 0.00065301 0.229543 0.0121975 -0.150899)
(-0.0191119 0.000169098 -0.00520009 0.000452392 -0.00578108 -5.3202e-05 0.024349 0.0123903 -0.208382)
(-0.00215378 0.000211598 0.00100292 0.000133387 -0.00639219 7.40192e-05 0.00302579 0.0141901 -0.206313)
(-0.000294858 5.32983e-05 0.000107519 3.0653e-05 -0.00655025 9.0221e-05 0.000447773 0.0146019 -0.205982)
(-3.9749e-05 7.19972e-06 -4.32792e-06 4.06517e-06 -0.00657093 9.00683e-05 8.94445e-05 0.0146723 -0.206061)
(-4.9362e-06 1.99216e-06 -1.69767e-06 5.79383e-07 -0.00657043 9.63491e-05 3.92023e-05 0.0146744 -0.206075)
(-1.14633e-06 -2.00308e-06 4.68332e-07 -1.35979e-06 -0.00656558 9.15429e-05 2.78035e-05 0.0147692 -0.206081)
(-1.18834e-06 -2.75951e-06 1.0281e-06 -1.34861e-06 -0.00655902 8.97072e-05 1.90224e-05 0.0146577 -0.206076)
(-6.52152e-07 1.5616e-06 -2.23592e-07 8.23422e-07 -0.00656463 9.40804e-05 1.25891e-05 0.0146655 -0.206077)
(-3.78149e-07 -1.04517e-07 -1.57328e-07 -4.01603e-07 -0.00655274 8.71247e-05 1.13144e-05 0.0147544 -0.206079)
(-9.4255e-07 -1.30701e-06 3.16101e-07 -1.39425e-06 -0.00656346 8.96069e-05 6.86016e-06 0.0146645 -0.206074)
(-1.08378e-07 1.63291e-06 1.278e-07 9.87204e-07 -0.00655031 8.70521e-05 -1.16978e-05 0.0146757 -0.206063)
(7.07819e-07 4.25683e-07 7.71619e-08 1.05985e-06 -0.00654194 8.79379e-05 2.01634e-06 0.0147613 -0.206064)
(-3.50031e-07 -2.69732e-06 3.43351e-07 -1.21727e-06 -0.00656195 9.08391e-05 1.60693e-05 0.0146666 -0.206073)
(-6.38789e-07 1.13932e-06 -3.60005e-07 6.28204e-07 -0.00655962 8.84433e-05 -4.76496e-07 0.0146585 -0.206076)
(2.07274e-07 9.69493e-07 7.89901e-08 7.88572e-07 -0.00655345 8.75172e-05 -1.60323e-06 0.0147584 -0.206079)
(-1.07185e-07 -2.05648e-06 3.48877e-07 -1.26089e-06 -0.0065621 9.06733e-05 2.68958e-07 0.0146666 -0.206075)
(-5.79414e-07 -1.04831e-06 -3.25055e-07 -1.25745e-06 -0.00655852 8.94954e-05 -1.25315e-06 0.0146586 -0.206074)
(-3.12203e-07 -2.32011e-07 -9.20798e-08 -4.85146e-07 -0.00655469 8.77275e-05 -1.70609e-05 0.0146728 -0.206063)
(-1.42685e-07 -1.05436e-06 3.04701e-07 -7.72723e-07 -0.00654445 8.69958e-05 -2.00702e-05 0.0146561 -0.206059)
(2.69733e-08 2.22102e-06 -7.39083e-07 1.53413e-06 -0.00654161 8.73508e-05 2.37347e-06 0.0145785 -0.20605)
(-6.74636e-07 1.37965e-06 -8.71494e-08 1.64513e-06 -0.00656989 9.2701e-05 1.04569e-06 0.0146737 -0.206075)
(-1.85574e-06 1.03321e-06 1.00576e-07 6.23692e-07 -0.00655823 8.95736e-05 -1.86115e-05 0.0146574 -0.206077)
(-1.39013e-06 4.61931e-06 -1.51258e-06 2.07255e-06 -0.00655992 9.14221e-05 -4.2422e-05 0.014763 -0.206078)
(-4.23173e-06 -2.21272e-06 1.74597e-06 -9.89632e-07 -0.00655533 9.19234e-05 -5.0951e-05 0.0147762 -0.206066)
(-3.95922e-05 -1.03308e-05 5.18251e-06 -6.25769e-06 -0.00654804 8.8401e-05 -7.40387e-05 0.0146622 -0.206042)
(-0.00029493 -5.1784e-05 -0.000108095 -2.98702e-05 -0.00654718 8.80395e-05 -0.000434987 0.014613 -0.205967)
(-0.00215388 -0.000211096 -0.00100263 -0.000132357 -0.00639567 7.50974e-05 -0.00302561 0.0141948 -0.206307)
(-0.0191118 -0.000168398 0.00519941 -0.000452598 -0.00578168 -5.36581e-05 -0.0243501 0.0123886 -0.208381)
(-0.0914491 0.00122081 0.120849 -0.00244803 -0.00558549 0.000657841 -0.229539 0.0122059 -0.1509)
(-0.0920793 -0.000752488 -0.122013 0.00149296 -0.0035244 0.000381467 0.231759 0.00768668 -0.150923)
(-0.0192876 0.000105744 -0.00524469 0.000302665 -0.0035827 -5.26755e-05 0.0247477 0.00771171 -0.208908)
(-0.00218787 0.000145944 0.00101394 9.84732e-05 -0.00403609 2.67041e-05 0.00314512 0.00887959 -0.206845)
(-0.000305871 3.88493e-05 0.000109334 2.35335e-05 -0.00414787 3.60727e-05 0.000475951 0.00924044 -0.206522)
(-4.23842e-05 5.45861e-06 -3.98783e-06 3.58006e-06 -0.00416523 3.80252e-05 9.3235e-05 0.00929327 -0.206603)
(-5.44817e-06 1.29214e-06 -1.69398e-06 4.54197e-07 -0.00416349 3.80151e-05 3.89558e-05 0.00929718 -0.206618)
(-1.2782e-06 -1.16489e-06 6.24588e-08 -1.04966e-06 -0.00416955 4.09422e-05 2.66963e-05 0.00930093 -0.206621)
(-1.02443e-06 -1.49332e-06 8.78188e-07 -7.62152e-07 -0.00415676 3.54318e-05 1.86601e-05 0.00928662 -0.20662)
(-6.09454e-07 8.71347e-07 -5.12274e-07 2.99634e-07 -0.00415969 3.72114e-05 1.27247e-05 0.00929166 -0.20662)
(-6.12764e-07 -6.03817e-08 -7.07433e-09 -3.90216e-07 -0.00416217 3.59826e-05 1.06733e-05 0.00929375 -0.20662)
(-6.70157e-07 -8.26124e-09 -1.3511e-07 -3.42961e-07 -0.00415929 3.87709e-05 -6.88523e-06 0.00929001 -0.206617)
(2.71982e-07 2.51809e-06 -5.07378e-07 1.67688e-06 -0.00414932 3.36225e-05 2.7588e-06 0.00929309 -0.206605)
(2.34898e-07 -3.86053e-07 8.56129e-07 3.33473e-07 -0.00416064 3.51284e-05 1.60669e-05 0.00938502 -0.206616)
(-5.08968e-07 -3.43006e-06 3.93256e-07 -2.11852e-06 -0.00415851 3.5748e-05 1.95275e-06 0.00929324 -0.206617)
(-3.17413e-07 5.9559e-07 -6.55628e-07 2.16778e-07 -0.0041613 3.61522e-05 -4.13158e-07 0.00928633 -0.206617)
(8.91446e-08 9.36856e-07 2.53026e-07 8.46269e-07 -0.00416271 3.62275e-05 -1.08768e-06 0.00929714 -0.206619)
(-4.11005e-07 -1.30868e-06 5.69357e-07 -7.93125e-07 -0.00415847 3.56572e-05 -2.57406e-07 0.00929322 -0.206619)
(-3.76485e-07 -8.8792e-07 -7.274e-07 -1.33432e-06 -0.0041577 3.43472e-05 -1.53028e-05 0.00928776 -0.206616)
(5.96341e-08 1.1787e-06 -2.24294e-07 6.60375e-07 -0.00414567 3.40536e-05 -3.46456e-06 0.00921865 -0.206595)
(-2.76659e-07 1.85268e-06 1.90061e-07 1.68858e-06 -0.00415688 3.46138e-05 -6.36746e-06 0.00937084 -0.206611)
(-5.67164e-08 2.56437e-08 2.40096e-08 2.5863e-07 -0.00414052 3.1527e-05 -1.06276e-05 0.00937341 -0.206606)
(-6.14195e-07 -1.41091e-06 4.36102e-07 -5.75276e-07 -0.00416301 3.95328e-05 1.07239e-06 0.00929551 -0.206617)
(-1.59794e-06 5.93842e-07 -5.09957e-07 3.13547e-07 -0.00415628 3.58381e-05 -1.83941e-05 0.00928686 -0.20662)
(-1.33893e-06 4.10027e-06 -1.0379e-06 2.48668e-06 -0.00416656 3.75049e-05 -2.77278e-05 0.00929809 -0.206618)
(-5.35839e-06 2.43538e-07 1.7881e-06 5.63575e-07 -0.00416859 4.00835e-05 -3.73897e-05 0.0093919 -0.206617)
(-4.24774e-05 -9.21509e-06 4.2482e-06 -6.40316e-06 -0.00415548 3.43764e-05 -0.000105617 0.00937476 -0.206596)
(-0.00030531 -3.97961e-05 -0.00010947 -2.43345e-05 -0.00413976 3.23782e-05 -0.000476525 0.00916855 -0.206496)
(-0.00218788 -0.000145244 -0.0010132 -9.71789e-05 -0.00403866 2.64307e-05 -0.00313111 0.00888195 -0.206838)
(-0.019288 -0.000104985 0.00524441 -0.000302621 -0.00358305 -5.31299e-05 -0.0247494 0.00770966 -0.208908)
(-0.092079 0.000755332 0.122013 -0.00149654 -0.00352452 0.000385151 -0.231759 0.00769307 -0.150924)
(-0.092466 -0.000449311 -0.122706 0.000883613 -0.0022327 0.000237427 0.23308 0.00482715 -0.150944)
(-0.0193908 6.67603e-05 -0.00527104 0.000192834 -0.00222842 -2.58296e-05 0.0250049 0.00480003 -0.209231)
(-0.0022096 9.85626e-05 0.00102067 7.07033e-05 -0.00254635 2.40428e-05 0.00323183 0.00557738 -0.207179)
(-0.000313837 2.74705e-05 0.000109783 1.74726e-05 -0.00263221 2.79875e-05 0.00049768 0.0058347 -0.206861)
(-4.43648e-05 4.07616e-06 -3.93945e-06 2.91728e-06 -0.00264945 2.93956e-05 9.64701e-05 0.00587296 -0.206941)
(-5.86214e-06 1.12817e-06 -1.11427e-06 6.78963e-07 -0.0026448 2.80313e-05 3.87441e-05 0.005878 -0.206959)
(-1.3896e-06 -6.56418e-07 -4.83205e-08 -7.33454e-07 -0.00264752 3.18152e-05 2.5739e-05 0.00587927 -0.206961)