/*--------------------------------*- C++ -*----------------------------------*\
| =========                 |                                                 |
| \\      /  F ield         | OpenFOAM: The Open Source CFD Toolbox           |
|  \\    /   O peration     | Version:  2106                                  |
|   \\  /    A nd           | Website:  www.openfoam.com                      |
|    \\/     M anipulation  |                                                 |
\*---------------------------------------------------------------------------*/
FoamFile
{
    version     2.0;
    format      ascii;
    arch        "LSB;label=32;scalar=64";
    class       volVectorField;
    location    "349";
    object      D;
}
// * * * * * * * * * * * * * * * * * * * * * * * * * * * * * * * * * * * * * //

dimensions      [0 1 0 0 0 0 0];

internalField   nonuniform List<vector> 
9000
(
(1.14049e-05 2.08583e-05 3.13733e-06)
(1.32606e-06 2.19629e-05 8.40736e-08)
(2.19545e-07 2.33152e-05 1.23177e-06)
(3.90926e-08 2.36183e-05 1.44569e-06)
(4.90281e-09 2.36273e-05 1.44886e-06)
(1.82232e-09 2.35933e-05 1.42754e-06)
(2.00678e-09 2.36128e-05 1.43959e-06)
(7.86963e-10 2.35928e-05 1.42753e-06)
(1.94091e-09 2.35926e-05 1.42736e-06)
(1.09798e-10 2.36193e-05 1.44441e-06)
(-2.17005e-09 2.36043e-05 1.43326e-06)
(1.77041e-09 2.35779e-05 1.41603e-06)
(2.72915e-09 2.3616e-05 1.44237e-06)
(-1.08383e-09 2.36165e-05 1.44235e-06)
(2.97409e-10 2.36085e-05 1.43569e-06)
(1.11402e-09 2.36217e-05 1.44596e-06)
(-1.67151e-09 2.36165e-05 1.4423e-06)
(-2.1811e-10 2.36083e-05 1.43549e-06)
(-1.48718e-09 2.36171e-05 1.44308e-06)
(-1.55725e-09 2.35785e-05 1.41666e-06)
(1.6519e-09 2.35897e-05 1.42537e-06)
(2.88623e-10 2.3618e-05 1.44343e-06)
(-2.14439e-09 2.362e-05 1.44472e-06)
(-2.07998e-09 2.35946e-05 1.42857e-06)
(-2.1658e-09 2.36149e-05 1.44173e-06)
(-7.45817e-09 2.36025e-05 1.43301e-06)
(-3.85697e-08 2.36e-05 1.43273e-06)
(-2.17806e-07 2.33089e-05 1.22794e-06)
(-1.32589e-06 2.19626e-05 8.39293e-08)
(-1.14052e-05 2.08573e-05 3.13694e-06)
(1.10782e-05 1.25673e-05 -5.84509e-06)
(1.22373e-06 1.31911e-05 -9.25888e-06)
(1.43518e-07 1.40086e-05 -8.68716e-06)
(2.13827e-08 1.42136e-05 -8.60675e-06)
(5.3084e-09 1.42197e-05 -8.60756e-06)
(2.77273e-09 1.42026e-05 -8.60572e-06)
(2.07119e-09 1.42092e-05 -8.60905e-06)
(1.25507e-09 1.42031e-05 -8.60483e-06)
(1.00175e-09 1.42029e-05 -8.605e-06)
(7.02001e-10 1.42132e-05 -8.60857e-06)
(3.51616e-10 1.42101e-05 -8.60634e-06)
(4.61588e-10 1.42e-05 -8.60228e-06)
(2.76132e-10 1.42104e-05 -8.60886e-06)
(-1.07395e-10 1.4209e-05 -8.60798e-06)
(3.70574e-11 1.42129e-05 -8.60615e-06)
(-1.53293e-11 1.42148e-05 -8.60826e-06)
(-2.70407e-10 1.42091e-05 -8.60797e-06)
(-9.00786e-11 1.42128e-05 -8.60626e-06)
(-2.79151e-10 1.42117e-05 -8.60864e-06)
(-5.15129e-10 1.42006e-05 -8.60258e-06)
(-7.53227e-10 1.42011e-05 -8.6046e-06)
(-1.01198e-09 1.42116e-05 -8.60932e-06)
(-1.3829e-09 1.42137e-05 -8.6086e-06)
(-1.80592e-09 1.42039e-05 -8.60504e-06)
(-2.51957e-09 1.42095e-05 -8.60946e-06)
(-5.4676e-09 1.42107e-05 -8.60364e-06)
(-2.14279e-08 1.42082e-05 -8.60457e-06)
(-1.43519e-07 1.40021e-05 -8.68715e-06)
(-1.22382e-06 1.31908e-05 -9.25883e-06)
(-1.10784e-05 1.25662e-05 -5.8453e-06)
(1.1149e-05 7.77955e-06 -7.4092e-06)
(1.21967e-06 8.20192e-06 -1.09328e-05)
(1.30395e-07 8.74909e-06 -1.04555e-05)
(1.5808e-08 8.8963e-06 -1.04012e-05)
(5.43159e-09 8.90228e-06 -1.04031e-05)
(3.10299e-09 8.8971e-06 -1.04002e-05)
(2.08164e-09 8.89425e-06 -1.04033e-05)
(1.62792e-09 8.89965e-06 -1.04002e-05)
(4.74014e-10 8.89909e-06 -1.04004e-05)
(5.83502e-10 8.89746e-06 -1.04032e-05)
(1.34278e-09 8.89519e-06 -1.04024e-05)
(1.54548e-10 8.89739e-06 -1.03986e-05)
(-9.35199e-10 8.89408e-06 -1.04018e-05)
(4.83776e-11 8.89778e-06 -1.04015e-05)
(1.49805e-10 8.89734e-06 -1.04025e-05)
(-4.99066e-10 8.89863e-06 -1.04032e-05)
(1.10801e-10 8.89789e-06 -1.04015e-05)
(2.58684e-10 8.89717e-06 -1.04025e-05)
(3.72373e-10 8.8966e-06 -1.04029e-05)
(5.21197e-11 8.89787e-06 -1.03992e-05)
(-1.64215e-09 8.89854e-06 -1.03994e-05)
(-1.72615e-09 8.89477e-06 -1.04028e-05)
(-9.26906e-10 8.89804e-06 -1.04033e-05)
(-1.70504e-09 8.8993e-06 -1.04008e-05)
(-2.61354e-09 8.89303e-06 -1.04029e-05)
(-4.62005e-09 8.90493e-06 -1.03998e-05)
(-1.64833e-08 8.89268e-06 -1.03999e-05)
(-1.30997e-07 8.74756e-06 -1.04537e-05)
(-1.21968e-06 8.20177e-06 -1.09327e-05)
(-1.1149e-05 7.77801e-06 -7.40963e-06)
(1.15346e-05 4.8919e-06 -7.09647e-06)
(1.26205e-06 5.16121e-06 -1.0743e-05)
(1.43139e-07 5.5588e-06 -1.02381e-05)
(1.69415e-08 5.6654e-06 -1.01798e-05)
(4.95652e-09 5.67115e-06 -1.01821e-05)
(3.07675e-09 5.66795e-06 -1.01818e-05)
(2.18641e-09 5.66433e-06 -1.0182e-05)
(1.49006e-09 5.66921e-06 -1.01831e-05)
(6.69077e-10 5.66764e-06 -1.01823e-05)
(7.49875e-10 5.668e-06 -1.01819e-05)
(1.19342e-09 5.66623e-06 -1.0182e-05)
(-3.27867e-11 5.66748e-06 -1.0182e-05)
(-6.92201e-10 5.66772e-06 -1.01808e-05)
(2.30851e-10 5.67293e-06 -1.01818e-05)
(1.02943e-11 5.66825e-06 -1.01819e-05)
(-3.78529e-10 5.66893e-06 -1.01822e-05)
(1.47525e-10 5.67297e-06 -1.01819e-05)
(2.37405e-10 5.66811e-06 -1.01818e-05)
(1.96362e-10 5.66741e-06 -1.01812e-05)
(-1.5975e-10 5.66806e-06 -1.01827e-05)
(-1.58131e-09 5.6685e-06 -1.01822e-05)
(-1.59575e-09 5.66768e-06 -1.01812e-05)
(-9.64342e-10 5.66865e-06 -1.01822e-05)
(-1.87683e-09 5.66758e-06 -1.01831e-05)
(-2.59423e-09 5.66518e-06 -1.01809e-05)
(-4.23655e-09 5.67267e-06 -1.01826e-05)
(-1.72883e-08 5.663e-06 -1.01793e-05)
(-1.43762e-07 5.56197e-06 -1.02371e-05)
(-1.26228e-06 5.16119e-06 -1.07428e-05)
(-1.1534e-05 4.88951e-06 -7.09623e-06)
(1.20093e-05 3.08952e-06 -6.68379e-06)
(1.32086e-06 3.23667e-06 -1.04719e-05)
(1.61484e-07 3.53377e-06 -9.93126e-06)
(2.0132e-08 3.61111e-06 -9.86552e-06)
(4.77577e-09 3.61581e-06 -9.86735e-06)
(2.73403e-09 3.61838e-06 -9.86841e-06)
(2.20003e-09 3.61224e-06 -9.86785e-06)
(1.36899e-09 3.61531e-06 -9.86867e-06)
(8.49669e-10 3.61547e-06 -9.8682e-06)
(9.74729e-10 3.6142e-06 -9.86764e-06)
(8.90423e-10 3.61246e-06 -9.86755e-06)
(6.62699e-11 3.61392e-06 -9.86806e-06)
(-4.16427e-10 3.6168e-06 -9.86823e-06)
(1.9076e-10 3.61775e-06 -9.86903e-06)
(2.5074e-11 3.61486e-06 -9.86782e-06)
(-3.34684e-10 3.61492e-06 -9.8682e-06)
(1.05823e-10 3.61768e-06 -9.86913e-06)
(2.52069e-10 3.61476e-06 -9.86778e-06)
(-2.47051e-11 3.61381e-06 -9.867e-06)
(-3.72995e-10 3.61442e-06 -9.86846e-06)
(-1.24481e-09 3.61488e-06 -9.86806e-06)
(-1.34377e-09 3.61617e-06 -9.8677e-06)
(-1.27875e-09 3.61515e-06 -9.86801e-06)
(-2.03801e-09 3.61518e-06 -9.8686e-06)
(-2.37629e-09 3.61527e-06 -9.86781e-06)
(-4.21175e-09 3.61735e-06 -9.86798e-06)
(-2.04185e-08 3.60929e-06 -9.8652e-06)
(-1.61922e-07 3.53544e-06 -9.93205e-06)
(-1.32119e-06 3.2367e-06 -1.04717e-05)
(-1.20079e-05 3.08918e-06 -6.6835e-06)
(1.24238e-05 1.94994e-06 -6.45267e-06)
(1.37856e-06 2.01672e-06 -1.03625e-05)
(1.78179e-07 2.23372e-06 -9.79609e-06)
(2.35569e-08 2.29291e-06 -9.7261e-06)
(4.98586e-09 2.29847e-06 -9.72797e-06)
(2.58335e-09 2.30107e-06 -9.72999e-06)
(2.06236e-09 2.29732e-06 -9.72884e-06)
(1.43909e-09 2.29715e-06 -9.72887e-06)
(8.57904e-10 2.29912e-06 -9.72917e-06)
(7.72966e-10 2.2956e-06 -9.72838e-06)
(7.11948e-10 2.29619e-06 -9.7285e-06)
(1.91181e-10 2.29535e-06 -9.72815e-06)
(-1.58752e-10 2.29697e-06 -9.72958e-06)
(2.53671e-10 2.29858e-06 -9.72911e-06)
(3.09811e-12 2.29684e-06 -9.72854e-06)
(-2.69289e-10 2.29606e-06 -9.72859e-06)
(7.45737e-11 2.29848e-06 -9.72917e-06)
(1.20632e-10 2.29679e-06 -9.72853e-06)
(-1.66878e-10 2.29512e-06 -9.72782e-06)
(-4.09222e-10 2.29616e-06 -9.72884e-06)
(-1.18824e-09 2.29656e-06 -9.72838e-06)
(-1.16372e-09 2.29859e-06 -9.72953e-06)
(-1.09929e-09 2.29711e-06 -9.72873e-06)
(-2.16133e-09 2.29811e-06 -9.72867e-06)
(-2.38625e-09 2.29883e-06 -9.72998e-06)
(-4.3683e-09 2.298e-06 -9.72822e-06)
(-2.39793e-08 2.29075e-06 -9.72517e-06)
(-1.78432e-07 2.23465e-06 -9.79681e-06)
(-1.37872e-06 2.01677e-06 -1.03622e-05)
(-1.24221e-05 1.95177e-06 -6.45282e-06)
(1.27279e-05 1.22882e-06 -6.34249e-06)
(1.42638e-06 1.25176e-06 -1.03404e-05)
(1.91487e-07 1.40788e-06 -9.75756e-06)
(2.6842e-08 1.45143e-06 -9.68518e-06)
(5.26209e-09 1.45761e-06 -9.68691e-06)
(2.33026e-09 1.45777e-06 -9.68889e-06)
(1.96073e-09 1.4576e-06 -9.6886e-06)
(1.42653e-09 1.45532e-06 -9.68788e-06)
(7.24955e-10 1.45649e-06 -9.68856e-06)
(7.98165e-10 1.45521e-06 -9.68807e-06)
(5.59629e-10 1.45623e-06 -9.68797e-06)
(-1.16492e-11 1.45469e-06 -9.68798e-06)
(1.84907e-10 1.45519e-06 -9.68828e-06)
(4.19858e-10 1.45615e-06 -9.68786e-06)
(-1.30655e-10 1.45507e-06 -9.68773e-06)
(-1.97137e-10 1.45538e-06 -9.68798e-06)
(1.41557e-10 1.45605e-06 -9.68791e-06)
(-1.82575e-10 1.45507e-06 -9.68773e-06)
(-2.71962e-10 1.45442e-06 -9.68809e-06)
(-3.05643e-10 1.45384e-06 -9.68762e-06)
(-9.45122e-10 1.4539e-06 -9.68745e-06)
(-9.77692e-10 1.45766e-06 -9.6885e-06)
(-1.30829e-09 1.45535e-06 -9.68791e-06)
(-2.19833e-09 1.45659e-06 -9.68854e-06)
(-2.24853e-09 1.45782e-06 -9.68933e-06)
(-4.79622e-09 1.45501e-06 -9.68694e-06)
(-2.70613e-08 1.45022e-06 -9.68481e-06)
(-1.91535e-07 1.40843e-06 -9.75763e-06)
(-1.42655e-06 1.2518e-06 -1.034e-05)
(-1.27266e-05 1.23014e-06 -6.3432e-06)
(1.29287e-05 7.73405e-07 -6.28716e-06)
(1.46213e-06 7.76488e-07 -1.03429e-05)
(2.01614e-07 8.86613e-07 -9.74968e-06)
(2.91474e-08 9.17422e-07 -9.67595e-06)
(5.52725e-09 9.21999e-07 -9.6779e-06)
(2.33301e-09 9.22247e-07 -9.67901e-06)
(1.83471e-09 9.23269e-07 -9.67956e-06)
(1.30961e-09 9.20784e-07 -9.67869e-06)
(8.17188e-10 9.21434e-07 -9.67894e-06)
(7.73891e-10 9.22124e-07 -9.67887e-06)
(4.24767e-10 9.21385e-07 -9.67904e-06)
(-3.13826e-11 9.21136e-07 -9.67888e-06)
(2.66254e-10 9.22633e-07 -9.67918e-06)
(4.30251e-10 9.21307e-07 -9.67854e-06)
(-4.44294e-11 9.20533e-07 -9.67862e-06)
(-1.34187e-10 9.22135e-07 -9.67874e-06)
(-3.85534e-12 9.21198e-07 -9.67861e-06)
(-2.58723e-10 9.20591e-07 -9.67858e-06)
(-4.35969e-10 9.20747e-07 -9.67909e-06)
(-5.36681e-10 9.20398e-07 -9.67881e-06)
(-6.78357e-10 9.1988e-07 -9.67886e-06)
(-6.86913e-10 9.22187e-07 -9.67923e-06)
(-1.25549e-09 9.20853e-07 -9.67874e-06)
(-2.12143e-09 9.22853e-07 -9.67922e-06)
(-2.42647e-09 9.24145e-07 -9.68004e-06)
(-5.16249e-09 9.21194e-07 -9.678e-06)
(-2.91039e-08 9.16847e-07 -9.67615e-06)
(-2.01607e-07 8.86809e-07 -9.74945e-06)
(-1.46236e-06 7.76387e-07 -1.03423e-05)
(-1.29281e-05 7.74317e-07 -6.2876e-06)
(1.3053e-05 4.86036e-07 -6.25581e-06)
(1.48661e-06 4.82206e-07 -1.03475e-05)
(2.09185e-07 5.57004e-07 -9.74787e-06)
(3.08851e-08 5.79403e-07 -9.67322e-06)
(5.74317e-09 5.82749e-07 -9.67518e-06)
(2.3618e-09 5.83044e-07 -9.67602e-06)
(1.73281e-09 5.83614e-07 -9.67664e-06)
(1.25394e-09 5.82188e-07 -9.67601e-06)
(8.74591e-10 5.82552e-07 -9.67603e-06)
(7.46418e-10 5.83064e-07 -9.67601e-06)
(2.44535e-10 5.82576e-07 -9.67603e-06)
(1.28888e-10 5.83059e-07 -9.67668e-06)
(4.12886e-10 5.84439e-07 -9.67651e-06)
(2.52385e-10 5.82553e-07 -9.67584e-06)
(-3.04639e-12 5.81786e-07 -9.67608e-06)
(-7.66084e-11 5.82985e-07 -9.67602e-06)
(-9.68062e-11 5.8244e-07 -9.67592e-06)
(-4.3244e-10 5.81996e-07 -9.67595e-06)
(-3.73374e-10 5.82179e-07 -9.67654e-06)
(-4.6896e-10 5.82849e-07 -9.67628e-06)
(-6.51338e-10 5.83381e-07 -9.6767e-06)
(-5.84274e-10 5.83023e-07 -9.6761e-06)
(-1.22245e-09 5.82269e-07 -9.67602e-06)
(-1.88778e-09 5.83457e-07 -9.67649e-06)
(-2.36139e-09 5.85219e-07 -9.67681e-06)
(-5.76021e-09 5.8349e-07 -9.67526e-06)
(-3.09181e-08 5.78859e-07 -9.67401e-06)
(-2.0901e-07 5.56984e-07 -9.74761e-06)
(-1.48681e-06 4.81976e-07 -1.03473e-05)
(-1.30528e-05 4.86781e-07 -6.25594e-06)
(1.3127e-05 3.04436e-07 -6.23673e-06)
(1.50243e-06 2.99647e-07 -1.035e-05)
(2.14697e-07 3.4934e-07 -9.74614e-06)
(3.21964e-08 3.65278e-07 -9.67128e-06)
(5.94382e-09 3.67548e-07 -9.67328e-06)
(2.39745e-09 3.67966e-07 -9.67405e-06)
(1.66366e-09 3.68282e-07 -9.67428e-06)
(1.21041e-09 3.67495e-07 -9.67411e-06)
(8.8081e-10 3.67702e-07 -9.67409e-06)
(7.21666e-10 3.67944e-07 -9.67387e-06)
(3.31973e-10 3.67753e-07 -9.67396e-06)
(2.19235e-10 3.68942e-07 -9.67441e-06)
(3.29668e-10 3.68834e-07 -9.67441e-06)
(1.09581e-10 3.67757e-07 -9.67394e-06)
(-8.91442e-12 3.66622e-07 -9.67407e-06)
(-8.19281e-13 3.67906e-07 -9.67404e-06)
(-1.37122e-10 3.67677e-07 -9.67403e-06)
(-4.87161e-10 3.67192e-07 -9.67422e-06)
(-3.6307e-10 3.68964e-07 -9.67475e-06)
(-3.158e-10 3.67286e-07 -9.67439e-06)
(-5.79003e-10 3.69016e-07 -9.67491e-06)
(-6.77842e-10 3.67965e-07 -9.67402e-06)
(-1.19761e-09 3.67578e-07 -9.67408e-06)
(-1.7447e-09 3.68219e-07 -9.67422e-06)
(-2.34481e-09 3.69162e-07 -9.67448e-06)
(-6.10534e-09 3.6816e-07 -9.67344e-06)
(-3.22843e-08 3.66058e-07 -9.67224e-06)
(-2.1447e-07 3.49166e-07 -9.74599e-06)
(-1.50259e-06 2.99518e-07 -1.035e-05)
(-1.31272e-05 3.05268e-07 -6.23659e-06)
(1.31702e-05 1.89051e-07 -6.22463e-06)
(1.51229e-06 1.8566e-07 -1.03511e-05)
(2.1859e-07 2.18015e-07 -9.74472e-06)
(3.31221e-08 2.29068e-07 -9.66967e-06)
(6.07351e-09 2.30055e-07 -9.67175e-06)
(2.48102e-09 2.30956e-07 -9.67247e-06)
(1.62272e-09 2.3117e-07 -9.67253e-06)
(1.17319e-09 2.30752e-07 -9.67253e-06)
(8.57147e-10 2.30879e-07 -9.67251e-06)
(6.9496e-10 2.31021e-07 -9.67243e-06)
(3.90909e-10 2.30877e-07 -9.67236e-06)
(2.78854e-10 2.31327e-07 -9.67289e-06)
(2.96086e-10 2.31531e-07 -9.67245e-06)
(-7.319e-11 2.30964e-07 -9.67236e-06)
(-9.02975e-12 2.30664e-07 -9.67288e-06)
(1.43736e-10 2.31084e-07 -9.67241e-06)
(-1.94672e-10 2.30924e-07 -9.67243e-06)
(-3.55646e-10 2.30036e-07 -9.67256e-06)
(-4.16688e-10 2.32586e-07 -9.673e-06)
(-4.25114e-10 2.31052e-07 -9.67296e-06)
(-4.45374e-10 2.31043e-07 -9.67298e-06)
(-6.94307e-10 2.30913e-07 -9.67246e-06)
(-1.17181e-09 2.30833e-07 -9.67249e-06)
(-1.659e-09 2.31142e-07 -9.67248e-06)
(-2.3532e-09 2.31613e-07 -9.67247e-06)
(-6.23333e-09 2.30929e-07 -9.67164e-06)
(-3.33014e-08 2.29456e-07 -9.67044e-06)
(-2.18449e-07 2.17607e-07 -9.74476e-06)
(-1.51234e-06 1.85598e-07 -1.03511e-05)
(-1.31706e-05 1.90313e-07 -6.22462e-06)
(1.31951e-05 1.16634e-07 -6.21768e-06)
(1.51836e-06 1.13623e-07 -1.03515e-05)
(2.21245e-07 1.3414e-07 -9.74375e-06)
(3.37262e-08 1.41575e-07 -9.6685e-06)
(6.18331e-09 1.42739e-07 -9.67099e-06)
(2.61752e-09 1.42749e-07 -9.67142e-06)
(1.60517e-09 1.42963e-07 -9.67139e-06)
(1.14576e-09 1.42756e-07 -9.67141e-06)
(8.47706e-10 1.42842e-07 -9.6714e-06)
(6.72477e-10 1.43022e-07 -9.67132e-06)
(3.82063e-10 1.4272e-07 -9.67131e-06)
(3.26513e-10 1.42462e-07 -9.67142e-06)
(3.14939e-10 1.43217e-07 -9.67119e-06)
(-3.01037e-11 1.42933e-07 -9.67123e-06)
(-6.47994e-13 1.43335e-07 -9.6717e-06)
(8.21535e-11 1.43042e-07 -9.67119e-06)
(-3.21236e-10 1.42971e-07 -9.67121e-06)
(-2.85021e-10 1.42878e-07 -9.67175e-06)
(-2.07184e-10 1.4383e-07 -9.67165e-06)
(-5.63365e-10 1.43574e-07 -9.67169e-06)
(-5.40374e-10 1.43437e-07 -9.67179e-06)
(-6.21716e-10 1.42582e-07 -9.67149e-06)
(-1.14221e-09 1.42842e-07 -9.67134e-06)
(-1.61315e-09 1.42933e-07 -9.67131e-06)
(-2.3811e-09 1.43167e-07 -9.67124e-06)
(-6.47045e-09 1.42497e-07 -9.67057e-06)
(-3.40876e-08 1.41475e-07 -9.66931e-06)
(-2.2104e-07 1.33265e-07 -9.74372e-06)
(-1.51816e-06 1.13546e-07 -1.03515e-05)
(-1.31956e-05 1.16891e-07 -6.21732e-06)
(1.32096e-05 6.95479e-08 -6.21345e-06)
(1.52165e-06 6.69395e-08 -1.03517e-05)
(2.22967e-07 7.93343e-08 -9.74313e-06)
(3.43343e-08 8.40769e-08 -9.66771e-06)
(6.24281e-09 8.52083e-08 -9.67015e-06)
(2.53892e-09 8.45291e-08 -9.67091e-06)
(1.60863e-09 8.48975e-08 -9.67071e-06)
(1.12829e-09 8.48095e-08 -9.67072e-06)
(8.47517e-10 8.48689e-08 -9.67071e-06)
(6.44032e-10 8.49581e-08 -9.67053e-06)
(2.84089e-10 8.45357e-08 -9.67081e-06)
(3.76165e-10 8.50865e-08 -9.67096e-06)
(4.1182e-10 8.51119e-08 -9.67047e-06)
(-5.57132e-11 8.49396e-08 -9.67055e-06)
(6.98311e-12 8.44538e-08 -9.67099e-06)
(1.04084e-10 8.49113e-08 -9.67037e-06)
(-2.23903e-10 8.49845e-08 -9.67038e-06)
(-2.45044e-10 8.57557e-08 -9.67079e-06)
(-2.9612e-10 8.54476e-08 -9.67055e-06)
(-4.72016e-10 8.46443e-08 -9.67094e-06)
(-5.89659e-10 8.60959e-08 -9.67065e-06)
(-7.53124e-10 8.40781e-08 -9.67074e-06)
(-1.09977e-09 8.49138e-08 -9.67057e-06)
(-1.59567e-09 8.48293e-08 -9.67064e-06)
(-2.43364e-09 8.49749e-08 -9.67055e-06)
(-6.54834e-09 8.39829e-08 -9.66981e-06)
(-3.46601e-08 8.51559e-08 -9.66836e-06)
(-2.22836e-07 7.92992e-08 -9.74343e-06)
(-1.52147e-06 6.67817e-08 -1.03517e-05)
(-1.32098e-05 6.90566e-08 -6.21307e-06)
(1.32175e-05 3.56877e-08 -6.21107e-06)
(1.52353e-06 3.50306e-08 -1.03518e-05)
(2.23994e-07 4.16485e-08 -9.7428e-06)
(3.46482e-08 4.41997e-08 -9.66719e-06)
(6.21228e-09 4.38491e-08 -9.67006e-06)
(2.57808e-09 4.38834e-08 -9.67048e-06)
(1.64865e-09 4.46864e-08 -9.67034e-06)
(1.119e-09 4.46644e-08 -9.67034e-06)
(8.26411e-10 4.47032e-08 -9.67034e-06)
(5.82371e-10 4.46694e-08 -9.67028e-06)
(4.13124e-10 4.39263e-08 -9.67039e-06)
(4.45283e-10 4.55899e-08 -9.67031e-06)
(3.01726e-10 4.48836e-08 -9.67004e-06)
(-1.72122e-10 4.47663e-08 -9.67017e-06)
(-1.81426e-11 4.47789e-08 -9.67079e-06)
(2.0264e-10 4.45348e-08 -9.67021e-06)
(-1.48772e-10 4.47694e-08 -9.67009e-06)
(-2.00655e-10 4.51207e-08 -9.67044e-06)
(-4.21566e-10 4.49634e-08 -9.66996e-06)
(-4.28885e-10 4.5001e-08 -9.67068e-06)
(-6.23587e-10 4.53006e-08 -9.67017e-06)
(-8.21895e-10 4.45988e-08 -9.67075e-06)
(-1.00207e-09 4.47063e-08 -9.67007e-06)
(-1.59431e-09 4.45219e-08 -9.67035e-06)
(-2.54193e-09 4.47194e-08 -9.67019e-06)
(-6.44898e-09 4.45389e-08 -9.66979e-06)
(-3.47077e-08 4.55023e-08 -9.66765e-06)
(-2.24028e-07 4.24662e-08 -9.74289e-06)
(-1.52347e-06 3.47594e-08 -1.03519e-05)
(-1.32179e-05 3.62489e-08 -6.21073e-06)
(1.32209e-05 1.14043e-08 -6.21001e-06)
(1.52451e-06 1.08584e-08 -1.03518e-05)
(2.24453e-07 1.29278e-08 -9.74268e-06)
(3.46282e-08 1.3646e-08 -9.66715e-06)
(6.14676e-09 1.32547e-08 -9.67002e-06)
(2.72604e-09 1.39017e-08 -9.67063e-06)
(1.75556e-09 1.38837e-08 -9.67019e-06)
(1.11664e-09 1.38802e-08 -9.67019e-06)
(8.13271e-10 1.39046e-08 -9.67019e-06)
(4.6345e-10 1.38781e-08 -9.67019e-06)
(4.66353e-10 1.39239e-08 -9.67055e-06)
(5.67253e-10 1.41923e-08 -9.67028e-06)
(2.62779e-10 1.39001e-08 -9.66978e-06)
(-8.70539e-11 1.39568e-08 -9.67001e-06)
(-5.08517e-11 1.44725e-08 -9.67046e-06)
(1.11234e-10 1.35422e-08 -9.67032e-06)
(-9.98225e-11 1.3919e-08 -9.66987e-06)
(-1.94699e-10 1.40187e-08 -9.67008e-06)
(-3.19992e-10 1.39573e-08 -9.66993e-06)
(-4.07873e-10 1.48606e-08 -9.67016e-06)
(-6.50047e-10 1.41251e-08 -9.66994e-06)
(-8.50755e-10 1.43853e-08 -9.67048e-06)
(-1.09628e-09 1.38475e-08 -9.67004e-06)
(-1.57771e-09 1.34958e-08 -9.67037e-06)
(-2.4273e-09 1.38833e-08 -9.67004e-06)
(-6.41321e-09 1.43696e-08 -9.66946e-06)
(-3.4882e-08 1.41109e-08 -9.6674e-06)
(-2.2464e-07 1.33206e-08 -9.74282e-06)
(-1.52436e-06 1.03398e-08 -1.03522e-05)
(-1.32214e-05 1.12455e-08 -6.20974e-06)
(1.32212e-05 -1.0369e-08 -6.20982e-06)
(1.52433e-06 -1.09222e-08 -1.03519e-05)
(2.2444e-07 -1.30191e-08 -9.74266e-06)
(3.46515e-08 -1.39106e-08 -9.66721e-06)
(6.28645e-09 -1.30756e-08 -9.66994e-06)
(2.70121e-09 -1.31356e-08 -9.67033e-06)
(1.64346e-09 -1.39942e-08 -9.6702e-06)
(1.11709e-09 -1.39892e-08 -9.67018e-06)
(8.14074e-10 -1.39747e-08 -9.67018e-06)
(5.67631e-10 -1.39955e-08 -9.67021e-06)
(4.60841e-10 -1.31667e-08 -9.67026e-06)
(4.33908e-10 -1.41691e-08 -9.6703e-06)
(2.65639e-10 -1.42153e-08 -9.66999e-06)
(-5.58088e-11 -1.39392e-08 -9.67001e-06)
(-1.02322e-10 -1.43416e-08 -9.67046e-06)
(8.78528e-11 -1.4762e-08 -9.6703e-06)
(-5.04684e-11 -1.40478e-08 -9.67e-06)
(-1.66568e-10 -1.41116e-08 -9.67009e-06)
(-2.6492e-10 -1.39427e-08 -9.66995e-06)
(-4.08567e-10 -1.35553e-08 -9.67021e-06)
(-6.99334e-10 -1.39291e-08 -9.66994e-06)
(-8.61541e-10 -1.43955e-08 -9.67049e-06)
(-1.13678e-09 -1.40005e-08 -9.6701e-06)
(-1.57374e-09 -1.48139e-08 -9.67034e-06)
(-2.37035e-09 -1.40247e-08 -9.67005e-06)
(-6.4331e-09 -1.44844e-08 -9.66935e-06)
(-3.48838e-08 -1.41767e-08 -9.6674e-06)
(-2.24828e-07 -1.27967e-08 -9.74262e-06)
(-1.52442e-06 -1.19603e-08 -1.0352e-05)
(-1.3221e-05 -1.13157e-08 -6.20978e-06)
(1.32178e-05 -3.62004e-08 -6.21122e-06)
(1.52344e-06 -3.51101e-08 -1.03518e-05)
(2.2396e-07 -4.17905e-08 -9.7428e-06)
(3.4721e-08 -4.46495e-08 -9.66745e-06)
(6.35418e-09 -4.37941e-08 -9.66979e-06)
(2.52062e-09 -4.43766e-08 -9.67054e-06)
(1.59225e-09 -4.48056e-08 -9.67037e-06)
(1.12397e-09 -4.47687e-08 -9.67035e-06)
(8.29464e-10 -4.47592e-08 -9.67035e-06)
(6.16875e-10 -4.47655e-08 -9.67033e-06)
(3.96976e-10 -4.44293e-08 -9.67047e-06)
(3.46231e-10 -4.55614e-08 -9.67037e-06)
(3.16901e-10 -4.52332e-08 -9.67044e-06)
(-9.66165e-11 -4.47039e-08 -9.67014e-06)
(-2.00059e-10 -4.45276e-08 -9.67073e-06)
(1.53197e-10 -4.46579e-08 -9.67068e-06)
(2.08681e-11 -4.48289e-08 -9.67023e-06)
(-1.3574e-10 -4.52082e-08 -9.67046e-06)
(-2.22307e-10 -4.48271e-08 -9.66996e-06)
(-4.29174e-10 -4.46255e-08 -9.67021e-06)
(-8.05402e-10 -4.4861e-08 -9.67011e-06)
(-8.59946e-10 -4.4609e-08 -9.67075e-06)
(-1.15469e-09 -4.47368e-08 -9.67028e-06)
(-1.58199e-09 -4.47525e-08 -9.67081e-06)
(-2.37165e-09 -4.4793e-08 -9.67023e-06)
(-6.45532e-09 -4.47678e-08 -9.66977e-06)
(-3.4665e-08 -4.54786e-08 -9.66762e-06)
(-2.24599e-07 -4.14999e-08 -9.74261e-06)
(-1.52367e-06 -3.49878e-08 -1.0352e-05)
(-1.32169e-05 -3.62812e-08 -6.21084e-06)
(1.32097e-05 -6.98494e-08 -6.21326e-06)
(1.52159e-06 -6.69929e-08 -1.03517e-05)
(2.22894e-07 -7.95783e-08 -9.74323e-06)
(3.44364e-08 -8.49637e-08 -9.66793e-06)
(6.3878e-09 -8.52033e-08 -9.66997e-06)
(2.48322e-09 -8.47839e-08 -9.67074e-06)
(1.57816e-09 -8.49799e-08 -9.67076e-06)
(1.13763e-09 -8.49017e-08 -9.67074e-06)
(8.63663e-10 -8.48945e-08 -9.67072e-06)
(6.41784e-10 -8.49525e-08 -9.67053e-06)
(2.47729e-10 -8.48072e-08 -9.67067e-06)
(2.61576e-10 -8.49958e-08 -9.67103e-06)
(4.41701e-10 -8.58111e-08 -9.6708e-06)
(9.67511e-11 -8.49336e-08 -9.67039e-06)
(-6.45547e-11 -8.39543e-08 -9.67073e-06)
(1.45227e-11 -8.40253e-08 -9.6705e-06)
(-1.78976e-10 -8.50129e-08 -9.6706e-06)
(-1.32036e-10 -8.58399e-08 -9.67082e-06)
(-1.60231e-10 -8.51614e-08 -9.67033e-06)
(-4.3731e-10 -8.49275e-08 -9.67054e-06)
(-6.93077e-10 -8.51959e-08 -9.6705e-06)
(-8.36028e-10 -8.40997e-08 -9.67073e-06)
(-1.15879e-09 -8.48405e-08 -9.67065e-06)
(-1.5862e-09 -8.40461e-08 -9.67087e-06)
(-2.38693e-09 -8.49216e-08 -9.67062e-06)
(-6.53446e-09 -8.41679e-08 -9.66985e-06)
(-3.45006e-08 -8.51367e-08 -9.66817e-06)
(-2.23209e-07 -7.92316e-08 -9.74273e-06)
(-1.52176e-06 -6.57711e-08 -1.03517e-05)
(-1.32091e-05 -6.90517e-08 -6.21313e-06)
(1.3195e-05 -1.16797e-07 -6.2176e-06)
(1.5183e-06 -1.13621e-07 -1.03515e-05)
(2.2109e-07 -1.3456e-07 -9.74408e-06)
(3.38686e-08 -1.41626e-07 -9.66897e-06)
(6.39885e-09 -1.42639e-07 -9.67091e-06)
(2.57364e-09 -1.42886e-07 -9.67138e-06)
(1.58982e-09 -1.42951e-07 -9.67149e-06)
(1.15606e-09 -1.42827e-07 -9.67144e-06)
(8.92778e-10 -1.42821e-07 -9.67141e-06)
(6.47109e-10 -1.4297e-07 -9.67111e-06)
(3.1207e-10 -1.42888e-07 -9.6713e-06)
(1.36027e-10 -1.42223e-07 -9.67141e-06)
(3.28881e-10 -1.42924e-07 -9.67175e-06)
(2.68378e-10 -1.42949e-07 -9.67121e-06)
(1.70567e-11 -1.42411e-07 -9.67151e-06)
(-5.24009e-11 -1.42576e-07 -9.67121e-06)
(-3.52589e-10 -1.4306e-07 -9.67131e-06)
(-1.50222e-10 -1.42967e-07 -9.67179e-06)
(-4.41187e-11 -1.43153e-07 -9.67123e-06)
(-4.36786e-10 -1.42964e-07 -9.67126e-06)
(-6.47056e-10 -1.43466e-07 -9.67132e-06)
(-7.95983e-10 -1.42651e-07 -9.67147e-06)
(-1.15148e-09 -1.42786e-07 -9.67134e-06)
(-1.59937e-09 -1.42407e-07 -9.67162e-06)
(-2.4086e-09 -1.42913e-07 -9.67132e-06)
(-6.4719e-09 -1.42635e-07 -9.67065e-06)
(-3.40048e-08 -1.41358e-07 -9.66919e-06)
(-2.21227e-07 -1.3404e-07 -9.74348e-06)
(-1.51828e-06 -1.1303e-07 -1.03518e-05)
(-1.31953e-05 -1.16879e-07 -6.21734e-06)
(1.31701e-05 -1.89134e-07 -6.22465e-06)
(1.51222e-06 -1.85559e-07 -1.03509e-05)
(2.18585e-07 -2.18743e-07 -9.74497e-06)
(3.32821e-08 -2.28315e-07 -9.66981e-06)
(6.14049e-09 -2.29884e-07 -9.67176e-06)
(2.46332e-09 -2.3103e-07 -9.67249e-06)
(1.62055e-09 -2.30954e-07 -9.67265e-06)
(1.17547e-09 -2.30787e-07 -9.67257e-06)
(9.14883e-10 -2.30788e-07 -9.67252e-06)
(6.35411e-10 -2.30969e-07 -9.67215e-06)
(3.10015e-10 -2.31011e-07 -9.67242e-06)
(2.36809e-10 -2.30828e-07 -9.67263e-06)
(2.8382e-10 -2.30151e-07 -9.67255e-06)
(1.8964e-10 -2.3093e-07 -9.67241e-06)
(4.02825e-11 -2.30643e-07 -9.67248e-06)
(-9.11552e-11 -2.30811e-07 -9.67236e-06)
(-2.47625e-10 -2.31246e-07 -9.67254e-06)
(-1.52396e-10 -2.30148e-07 -9.67261e-06)
(-1.51618e-10 -2.31103e-07 -9.67249e-06)
(-4.6915e-10 -2.31009e-07 -9.67241e-06)
(-6.38663e-10 -2.32015e-07 -9.67279e-06)
(-7.32473e-10 -2.31056e-07 -9.67243e-06)
(-1.13237e-09 -2.30777e-07 -9.67247e-06)
(-1.62364e-09 -2.30568e-07 -9.67256e-06)
(-2.43927e-09 -2.31002e-07 -9.67244e-06)
(-6.24281e-09 -2.31021e-07 -9.67173e-06)
(-3.32397e-08 -2.28901e-07 -9.67005e-06)
(-2.18546e-07 -2.17724e-07 -9.74454e-06)
(-1.5124e-06 -1.8529e-07 -1.03512e-05)
(-1.31705e-05 -1.90324e-07 -6.2246e-06)
(1.31269e-05 -3.04476e-07 -6.23678e-06)
(1.50232e-06 -2.99634e-07 -1.03496e-05)
(2.14775e-07 -3.48912e-07 -9.74638e-06)
(3.24033e-08 -3.65017e-07 -9.67152e-06)
(5.92388e-09 -3.6719e-07 -9.67349e-06)
(2.43693e-09 -3.68009e-07 -9.67412e-06)
(1.67699e-09 -3.67664e-07 -9.67424e-06)
(1.18985e-09 -3.67478e-07 -9.67415e-06)
(9.26983e-10 -3.67505e-07 -9.67408e-06)
(6.09373e-10 -3.67679e-07 -9.67367e-06)
(2.74997e-10 -3.67909e-07 -9.67406e-06)
(2.75738e-10 -3.68053e-07 -9.67411e-06)
(2.74393e-10 -3.67478e-07 -9.67423e-06)
(1.65334e-10 -3.67712e-07 -9.67403e-06)
(5.2584e-11 -3.67493e-07 -9.67402e-06)
(-1.30049e-10 -3.6759e-07 -9.67401e-06)
(-1.92307e-10 -3.68357e-07 -9.67439e-06)
(-1.27274e-10 -3.67366e-07 -9.6743e-06)
(-1.96137e-10 -3.6783e-07 -9.67415e-06)
(-5.53612e-10 -3.6777e-07 -9.67401e-06)
(-6.59016e-10 -3.69694e-07 -9.67459e-06)
(-6.28449e-10 -3.682e-07 -9.67399e-06)
(-1.10005e-09 -3.67499e-07 -9.67406e-06)
(-1.6614e-09 -3.67357e-07 -9.67408e-06)
(-2.48821e-09 -3.67916e-07 -9.67406e-06)
(-6.11338e-09 -3.68218e-07 -9.67354e-06)
(-3.22133e-08 -3.65088e-07 -9.67167e-06)
(-2.14557e-07 -3.48776e-07 -9.74584e-06)
(-1.50264e-06 -2.99309e-07 -1.035e-05)
(-1.31273e-05 -3.05326e-07 -6.23658e-06)
(1.30529e-05 -4.86051e-07 -6.25585e-06)
(1.48665e-06 -4.82261e-07 -1.03473e-05)
(2.0926e-07 -5.55272e-07 -9.74736e-06)
(3.09025e-08 -5.79443e-07 -9.67329e-06)
(5.69639e-09 -5.82237e-07 -9.67526e-06)
(2.46317e-09 -5.83096e-07 -9.67619e-06)
(1.7657e-09 -5.82264e-07 -9.67604e-06)
(1.19205e-09 -5.82106e-07 -9.67603e-06)
(9.21223e-10 -5.822e-07 -9.67597e-06)
(5.6843e-10 -5.82344e-07 -9.67564e-06)
(2.29166e-10 -5.82834e-07 -9.67615e-06)
(2.89256e-10 -5.83283e-07 -9.67621e-06)
(2.80902e-10 -5.82579e-07 -9.67603e-06)
(1.65569e-10 -5.82506e-07 -9.67594e-06)
(7.11336e-11 -5.8223e-07 -9.67595e-06)
(-1.89238e-10 -5.82274e-07 -9.67595e-06)
(-1.58157e-10 -5.83652e-07 -9.6762e-06)
(-5.62086e-11 -5.82257e-07 -9.67606e-06)
(-2.14027e-10 -5.82487e-07 -9.67614e-06)
(-7.26821e-10 -5.82434e-07 -9.67591e-06)
(-7.04279e-10 -5.84164e-07 -9.6766e-06)
(-4.51435e-10 -5.83407e-07 -9.67611e-06)
(-1.05488e-09 -5.8215e-07 -9.67598e-06)
(-1.71585e-09 -5.82032e-07 -9.67597e-06)
(-2.56464e-09 -5.82915e-07 -9.67612e-06)
(-5.80675e-09 -5.8355e-07 -9.67539e-06)
(-3.07306e-08 -5.78971e-07 -9.67348e-06)
(-2.09109e-07 -5.5603e-07 -9.74726e-06)
(-1.48688e-06 -4.81835e-07 -1.03474e-05)
(-1.30529e-05 -4.86914e-07 -6.25604e-06)
(1.29286e-05 -7.73402e-07 -6.28718e-06)
(1.46227e-06 -7.76477e-07 -1.03429e-05)
(2.01656e-07 -8.84994e-07 -9.74921e-06)
(2.90183e-08 -9.17794e-07 -9.67604e-06)
(5.44029e-09 -9.21167e-07 -9.67793e-06)
(2.5334e-09 -9.22398e-07 -9.67929e-06)
(1.88855e-09 -9.20863e-07 -9.67855e-06)
(1.18483e-09 -9.20639e-07 -9.67871e-06)
(8.93167e-10 -9.20871e-07 -9.67871e-06)
(5.07843e-10 -9.20776e-07 -9.67864e-06)
(1.88345e-10 -9.21825e-07 -9.67919e-06)
(2.91238e-10 -9.22618e-07 -9.67944e-06)
(2.84559e-10 -9.21609e-07 -9.67888e-06)
(1.78139e-10 -9.21306e-07 -9.67866e-06)
(1.04505e-10 -9.20854e-07 -9.67867e-06)
(-2.94371e-10 -9.2083e-07 -9.67866e-06)
(-1.2949e-10 -9.2138e-07 -9.67895e-06)
(9.60439e-11 -9.209e-07 -9.67871e-06)
(-2.16125e-10 -9.20969e-07 -9.67886e-06)
(-7.48071e-10 -9.20978e-07 -9.67859e-06)
(-7.63658e-10 -9.21169e-07 -9.6792e-06)
(-4.5321e-10 -9.22808e-07 -9.67937e-06)
(-1.00317e-09 -9.20683e-07 -9.67868e-06)
(-1.78841e-09 -9.2058e-07 -9.67867e-06)
(-2.69918e-09 -9.22053e-07 -9.67921e-06)
(-5.57655e-09 -9.21267e-07 -9.67812e-06)
(-2.87989e-08 -9.1803e-07 -9.67625e-06)
(-2.01477e-07 -8.85078e-07 -9.74918e-06)
(-1.46246e-06 -7.76058e-07 -1.03428e-05)
(-1.29281e-05 -7.74567e-07 -6.28779e-06)
(1.27278e-05 -1.22881e-06 -6.3425e-06)
(1.42661e-06 -1.25174e-06 -1.03404e-05)
(1.91375e-07 -1.40789e-06 -9.75745e-06)
(2.66553e-08 -1.45227e-06 -9.68551e-06)
(5.14635e-09 -1.45613e-06 -9.68715e-06)
(2.61444e-09 -1.45809e-06 -9.6886e-06)
(2.02901e-09 -1.45531e-06 -9.68795e-06)
(1.21844e-09 -1.45515e-06 -9.68791e-06)
(8.82805e-10 -1.45564e-06 -9.68817e-06)
(4.1228e-10 -1.45503e-06 -9.68792e-06)
(1.1156e-10 -1.45696e-06 -9.68816e-06)
(2.99538e-10 -1.45822e-06 -9.68864e-06)
(2.78104e-10 -1.45676e-06 -9.68846e-06)
(1.94322e-10 -1.45624e-06 -9.68798e-06)
(1.58164e-10 -1.45546e-06 -9.68787e-06)
(-1.71791e-10 -1.45536e-06 -9.68785e-06)
(-9.38486e-11 -1.4553e-06 -9.68801e-06)
(7.05764e-11 -1.45542e-06 -9.68789e-06)
(-2.10872e-10 -1.45527e-06 -9.68779e-06)
(-6.41123e-10 -1.45553e-06 -9.68779e-06)
(-8.39271e-10 -1.45595e-06 -9.6886e-06)
(-6.26981e-10 -1.45869e-06 -9.6888e-06)
(-9.39425e-10 -1.45515e-06 -9.68783e-06)
(-1.87828e-09 -1.45508e-06 -9.68787e-06)
(-2.63328e-09 -1.4575e-06 -9.68846e-06)
(-5.37197e-09 -1.45506e-06 -9.68686e-06)
(-2.65909e-08 -1.45101e-06 -9.68528e-06)
(-1.91169e-07 -1.40758e-06 -9.75717e-06)
(-1.42682e-06 -1.25126e-06 -1.03402e-05)
(-1.27268e-05 -1.23043e-06 -6.34267e-06)
(1.24238e-05 -1.94991e-06 -6.45267e-06)
(1.37862e-06 -2.0167e-06 -1.03625e-05)
(1.78005e-07 -2.23491e-06 -9.7966e-06)
(2.36873e-08 -2.29446e-06 -9.7267e-06)
(4.8179e-09 -2.29852e-06 -9.72805e-06)
(2.75942e-09 -2.29936e-06 -9.72992e-06)
(2.23865e-09 -2.29679e-06 -9.72886e-06)
(1.27762e-09 -2.29699e-06 -9.72894e-06)
(8.85406e-10 -2.29794e-06 -9.72965e-06)
(2.07407e-10 -2.29648e-06 -9.7285e-06)
(-5.86541e-11 -2.29727e-06 -9.72871e-06)
(3.48565e-10 -2.29924e-06 -9.72854e-06)
(3.14669e-10 -2.29938e-06 -9.72895e-06)
(2.17759e-10 -2.29874e-06 -9.72927e-06)
(2.22325e-10 -2.29741e-06 -9.72873e-06)
(-9.20506e-11 -2.29723e-06 -9.72871e-06)