/*--------------------------------*- C++ -*----------------------------------*\
| =========                 |                                                 |
| \\      /  F ield         | OpenFOAM: The Open Source CFD Toolbox           |
|  \\    /   O peration     | Version:  2106                                  |
|   \\  /    A nd           | Website:  www.openfoam.com                      |
|    \\/     M anipulation  |                                                 |
\*---------------------------------------------------------------------------*/
FoamFile
{
    version     2.0;
    format      ascii;
    arch        "LSB;label=32;scalar=64";
    class       volSymmTensorField;
    location    "349";
    object      epsilon;
}
// * * * * * * * * * * * * * * * * * * * * * * * * * * * * * * * * * * * * * //

dimensions      [0 0 0 0 0 0 0];

internalField   nonuniform List<symmTensor> 
9000
(
(-0.0855967 -0.000264461 0.0481824 -0.147142 0.0614252 -0.0252969)
(-0.016778 0.000537486 0.00939681 -0.15649 0.0651416 -0.0697131)
(-0.00193045 0.000335797 0.00257594 -0.166402 0.0691696 -0.0594762)
(-0.000321963 5.07155e-05 0.000456572 -0.168018 0.0700609 -0.0573452)
(-5.59055e-05 -7.83508e-06 4.19717e-05 -0.168101 0.0700876 -0.057356)
(-4.34404e-06 -1.875e-06 1.76365e-05 -0.167924 0.0698792 -0.0576171)
(-1.55304e-06 3.99106e-08 2.36807e-05 -0.168049 0.0700433 -0.0575004)
(-9.87953e-08 -5.83819e-06 5.82465e-06 -0.167918 0.0698813 -0.0576157)
(-1.01575e-06 6.41942e-06 2.83102e-05 -0.167918 0.0698795 -0.0576181)
(-6.16644e-06 6.60375e-06 -1.02238e-05 -0.168089 0.070065 -0.0574062)
(2.49091e-06 -6.0611e-06 -4.84491e-05 -0.167974 0.0699498 -0.0575259)
(7.3488e-06 -5.25611e-07 3.75575e-05 -0.1678 0.0697643 -0.0577477)
(-4.28135e-06 5.25619e-06 5.46707e-05 -0.16808 0.0700551 -0.0574298)
(-3.64761e-06 8.58985e-07 -2.94636e-05 -0.168096 0.0700626 -0.0574208)
(3.29678e-06 1.00085e-06 4.15775e-06 -0.16799 0.069961 -0.0575006)
(-2.95338e-06 -1.24704e-06 2.97419e-05 -0.1681 0.0700724 -0.0573884)
(-1.9982e-06 2.30542e-07 -3.71476e-05 -0.168096 0.0700625 -0.0574233)
(2.76498e-07 7.12272e-07 -2.17732e-06 -0.167989 0.0699602 -0.0575031)
(-2.00871e-06 -6.67729e-06 -2.31248e-05 -0.168081 0.0700586 -0.0574214)
(4.70862e-06 -6.37087e-06 -2.43578e-05 -0.167803 0.0697678 -0.0577315)
(2.7688e-06 5.7948e-06 4.18798e-05 -0.167903 0.069871 -0.0576487)
(-5.69443e-06 6.4884e-06 9.14954e-06 -0.168088 0.0700589 -0.0574206)
(-3.5529e-06 -5.92218e-06 -2.99666e-05 -0.16809 0.0700665 -0.0574083)
(-3.2125e-08 -8.59368e-07 -2.48017e-05 -0.167927 0.0698842 -0.0576062)
(-8.06729e-06 1.66145e-06 -2.33212e-05 -0.168076 0.0700508 -0.0574391)
(-5.46058e-05 1.8661e-06 -9.39398e-05 -0.167937 0.0699091 -0.0575462)
(-0.000315522 -4.58743e-05 -0.000445264 -0.167891 0.0699372 -0.0574815)
(-0.00193097 -0.000335586 -0.00253792 -0.166399 0.0691586 -0.0594996)
(-0.016781 -0.000536528 -0.00939476 -0.156489 0.0651411 -0.0697119)
(-0.0855966 0.000264419 -0.048184 -0.147142 0.0614214 -0.0252999)
(-0.0724116 -1.21861e-05 0.0464996 -0.0980905 0.0682059 -0.128954)
(-0.0164021 0.000682054 0.00803854 -0.103207 0.0717676 -0.174995)
(-0.00180351 0.00043258 0.00155171 -0.109245 0.0762541 -0.171309)
(-0.000207315 7.09722e-05 0.000233751 -0.110415 0.0774141 -0.170624)
(-2.79149e-05 -6.25916e-06 3.3591e-05 -0.110438 0.0774471 -0.170669)
(-4.85581e-06 -3.05277e-06 3.06183e-05 -0.110222 0.0773823 -0.170679)
(-2.27649e-06 6.62372e-07 2.38751e-05 -0.110389 0.0773949 -0.170689)
(-1.60416e-06 -1.62717e-06 -4.86738e-06 -0.110199 0.0773896 -0.170675)
(-8.29605e-07 2.01216e-06 3.12163e-05 -0.110201 0.0773845 -0.170678)
(-9.75202e-07 7.17908e-06 3.08114e-05 -0.110414 0.0774086 -0.170687)
(-3.6062e-07 3.33294e-06 -1.23917e-05 -0.110318 0.0775856 -0.170655)
(-1.13225e-07 -5.83188e-06 2.31603e-06 -0.110104 0.0775549 -0.170633)
(-8.53475e-07 -7.01146e-06 2.08657e-05 -0.110414 0.0773942 -0.170688)
(-3.58612e-07 6.16764e-06 1.77708e-06 -0.11039 0.0772565 -0.17067)
(1.38099e-07 3.78478e-06 -3.63605e-07 -0.110334 0.0776006 -0.170652)
(-4.61197e-07 -8.9263e-06 -2.06896e-06 -0.110423 0.0774186 -0.170682)
(-1.12124e-07 5.16878e-06 -5.76944e-07 -0.110389 0.0772566 -0.170672)
(-1.31154e-08 3.76272e-06 -2.25081e-06 -0.110334 0.0775996 -0.170653)
(-6.37576e-07 -2.18528e-06 -2.29315e-05 -0.110404 0.0773988 -0.17069)
(-7.11114e-07 -1.91954e-06 -2.56225e-05 -0.110104 0.0775689 -0.170643)
(-7.45274e-07 -4.11138e-06 7.12307e-06 -0.110183 0.0773698 -0.17067)
(-9.44515e-07 1.90986e-06 7.68867e-06 -0.110424 0.0773987 -0.170694)
(-1.19092e-06 -1.16648e-06 -3.52409e-05 -0.110415 0.0774127 -0.17069)
(-1.70499e-06 -1.79149e-06 -2.10086e-05 -0.110214 0.0773901 -0.170675)
(-5.49252e-06 3.44426e-06 -2.78235e-05 -0.110414 0.0773865 -0.170694)
(-2.83625e-05 9.72735e-06 -5.16224e-05 -0.110232 0.0774337 -0.170649)
(-0.000207078 -7.36508e-05 -0.000213617 -0.110305 0.0775774 -0.170591)
(-0.00180359 -0.000437524 -0.00155312 -0.10921 0.0760939 -0.171307)
(-0.0164023 -0.000678665 -0.00804071 -0.103206 0.0717659 -0.174992)
(-0.0724108 1.22072e-05 -0.0465007 -0.0980948 0.0681966 -0.128954)
(-0.0763138 0.00117214 0.0467663 -0.0575655 0.0581891 -0.153372)
(-0.016528 0.000870856 0.00787822 -0.0602242 0.0606681 -0.201957)
(-0.00180579 0.000519371 0.00137655 -0.0633739 0.0647391 -0.199919)
(-0.000187446 9.82362e-05 0.000173103 -0.0641117 0.0659182 -0.199616)
(-1.90576e-05 -7.20613e-07 5.69933e-05 -0.0641141 0.0659612 -0.199675)
(-5.02492e-06 -4.87943e-06 3.39483e-05 -0.0640101 0.066073 -0.199632)
(-2.21262e-06 2.34238e-06 2.3007e-05 -0.0640867 0.0659036 -0.199679)
(-2.41144e-06 4.50507e-06 1.96568e-05 -0.0640045 0.0661728 -0.19965)
(-1.56662e-06 -2.89228e-06 4.83808e-06 -0.0640141 0.0661671 -0.199651)
(1.30316e-06 -2.74335e-06 6.2111e-06 -0.0640887 0.0659256 -0.199685)
(-6.43431e-07 3.10768e-06 1.65298e-05 -0.0640787 0.0659022 -0.199669)
(-3.41698e-06 -2.68519e-06 2.7159e-06 -0.0639942 0.066151 -0.199625)
(-1.59256e-07 -3.34267e-06 -2.19008e-05 -0.0640698 0.0658182 -0.199638)
(1.62751e-06 3.7126e-06 4.61993e-08 -0.0640206 0.0659288 -0.199666)
(-8.21166e-07 5.44256e-07 1.25105e-05 -0.064085 0.0659186 -0.199672)
(-5.85062e-08 -9.50326e-07 -1.64575e-05 -0.0640941 0.0659361 -0.199683)
(1.13663e-06 4.70523e-07 1.07512e-06 -0.0640209 0.0659288 -0.199668)
(3.92359e-07 2.62273e-07 1.28743e-05 -0.064085 0.0659173 -0.199673)
(-3.09846e-07 2.30938e-06 4.49743e-06 -0.0640823 0.0659159 -0.199684)
(-3.02178e-06 2.79009e-06 1.39123e-06 -0.0639938 0.066152 -0.199635)
(-2.66741e-06 -5.43309e-06 -1.88333e-05 -0.0639946 0.0661664 -0.199641)
(1.07286e-06 -2.57003e-06 -2.04653e-05 -0.0640791 0.0658253 -0.199668)
(3.16698e-08 4.97032e-06 -1.04974e-05 -0.0640881 0.0659316 -0.199688)
(-2.52996e-06 -4.01706e-06 -1.90527e-05 -0.0640225 0.0661705 -0.199652)
(-4.37252e-06 3.941e-06 -2.86354e-05 -0.0640821 0.0658124 -0.199662)
(-2.08047e-05 4.3493e-06 -4.68842e-05 -0.0640355 0.0662122 -0.199634)
(-0.000189566 -0.000102503 -0.000192787 -0.0640894 0.0658812 -0.199598)
(-0.0018048 -0.000519095 -0.00138271 -0.063301 0.0647194 -0.199906)
(-0.0165269 -0.000871363 -0.00786724 -0.0602224 0.0606666 -0.201953)
(-0.0763113 -0.00117189 -0.0467665 -0.0575753 0.0581772 -0.153372)
(-0.0818877 0.00181497 0.0483889 -0.0351752 0.040928 -0.154261)
(-0.0170872 0.000879621 0.00815038 -0.0372394 0.0422838 -0.205368)
(-0.00186766 0.000494725 0.00149573 -0.0391149 0.0456256 -0.203483)
(-0.000207274 0.00010048 0.000193394 -0.039639 0.0465059 -0.203192)
(-2.07971e-05 -5.46451e-07 4.22668e-05 -0.0396485 0.0465518 -0.203257)
(-4.15517e-06 -6.49804e-06 3.45663e-05 -0.0395904 0.0464504 -0.203221)
(-2.38003e-06 1.38352e-06 3.148e-05 -0.0396151 0.0464389 -0.203248)
(-2.27599e-06 1.51186e-06 1.62904e-05 -0.0396326 0.0465241 -0.20327)
(-1.11028e-06 5.06333e-07 9.39045e-06 -0.0396272 0.046451 -0.203232)
(7.86513e-07 4.09841e-07 8.76413e-06 -0.0396244 0.0465241 -0.203265)
(-1.17399e-06 -2.08842e-06 1.19337e-05 -0.0396204 0.0465117 -0.20326)
(-2.82843e-06 7.85089e-07 -6.73334e-06 -0.039626 0.0465044 -0.203237)
(3.95457e-07 6.0362e-06 -4.73723e-06 -0.0395796 0.046526 -0.203244)
(1.05374e-06 9.29095e-07 9.86028e-06 -0.0396002 0.0466896 -0.20327)
(-9.1407e-07 -3.47418e-06 -6.59171e-07 -0.0396186 0.0465266 -0.203263)
(2.05847e-07 4.15843e-06 -3.01123e-06 -0.0396279 0.0465343 -0.203266)
(9.239e-07 -6.32628e-07 9.70423e-07 -0.0396015 0.0466893 -0.203272)
(7.32547e-08 -4.1924e-06 1.14092e-06 -0.0396181 0.0465253 -0.203263)
(-5.95732e-07 -1.5258e-06 2.83356e-07 -0.0396209 0.0465153 -0.203242)
(-2.66651e-06 -7.75776e-07 -3.45535e-06 -0.0396259 0.0465125 -0.203263)
(-2.15399e-06 1.20658e-06 -2.35469e-05 -0.0396275 0.0465141 -0.203245)
(9.25455e-07 1.54075e-06 -1.68212e-05 -0.0395895 0.0465199 -0.203236)
(-4.21631e-07 -1.3907e-06 -4.34138e-06 -0.0396217 0.0465319 -0.203269)
(-2.44483e-06 -3.84703e-06 -2.83676e-05 -0.0396309 0.0464531 -0.203255)
(-3.53958e-06 4.70511e-06 -2.94448e-05 -0.0395832 0.0464411 -0.203213)
(-2.2041e-05 -1.05504e-07 -3.61649e-05 -0.0396569 0.0465521 -0.203252)
(-0.000209289 -9.77819e-05 -0.000195054 -0.0396254 0.0464808 -0.203182)
(-0.00186748 -0.000492323 -0.00150257 -0.0390909 0.0457682 -0.203457)
(-0.0170854 -0.000885007 -0.00815361 -0.037238 0.0422829 -0.205365)
(-0.0818923 -0.00181425 -0.0483875 -0.0351662 0.0408519 -0.154246)
(-0.0860684 0.00177788 0.0503889 -0.0220647 0.0263976 -0.152255)
(-0.0177718 0.000770115 0.00856362 -0.0235837 0.0267859 -0.20572)
(-0.00195109 0.000412226 0.00166644 -0.024938 0.0294033 -0.203758)
(-0.000235062 8.6341e-05 0.000213823 -0.0252937 0.0299732 -0.203428)
(-2.6097e-05 5.56748e-06 4.15824e-05 -0.0252951 0.0299632 -0.203485)
(-3.86361e-06 -4.53088e-06 2.32381e-05 -0.0252516 0.030109 -0.203514)
(-2.04755e-06 -2.772e-06 3.03117e-05 -0.0252526 0.0299328 -0.20349)
(-2.02554e-06 2.22933e-06 1.49661e-05 -0.0252904 0.0300081 -0.203514)
(-5.91398e-07 -1.19335e-07 1.06373e-05 -0.0252639 0.0300104 -0.203503)
(6.11309e-08 -2.16391e-06 1.82332e-05 -0.025293 0.0299986 -0.203489)
(-1.36269e-06 -2.01771e-06 9.11811e-06 -0.0252753 0.0299381 -0.203492)
(-1.96028e-06 4.09152e-06 1.56347e-06 -0.025291 0.030001 -0.2035)
(1.86735e-07 4.87455e-06 -3.39368e-06 -0.0252806 0.0300977 -0.203517)
(6.62251e-07 -1.3698e-06 1.42818e-06 -0.0253076 0.030024 -0.203513)
(-7.88165e-07 -2.15105e-06 4.67983e-07 -0.0252855 0.0300035 -0.203508)
(1.21123e-07 2.5286e-06 -3.54319e-06 -0.0252965 0.0300058 -0.203509)
(8.80129e-07 -3.91848e-07 5.46989e-07 -0.0253087 0.0300231 -0.203515)
(-1.95792e-07 -3.34599e-06 2.59653e-06 -0.0252849 0.0300026 -0.203508)
(-9.37597e-07 -1.61862e-06 -1.4463e-06 -0.0252922 0.0299977 -0.203479)
(-1.83015e-06 -1.29911e-07 -5.3909e-06 -0.0252892 0.0300012 -0.203509)
(-1.45616e-06 2.78379e-06 -1.17965e-05 -0.0252896 0.0300068 -0.203505)
(-5.09068e-08 1.81864e-06 -1.44128e-05 -0.0252681 0.0300479 -0.203505)
(-1.04136e-06 -1.24727e-06 -2.27339e-05 -0.0252865 0.0300057 -0.203512)
(-1.64631e-06 -9.742e-07 -2.82018e-05 -0.0252711 0.0300041 -0.203505)
(-3.2606e-06 2.40431e-06 -1.95215e-05 -0.0252476 0.0300374 -0.203493)
(-2.70633e-05 -4.97666e-06 -3.71477e-05 -0.0253101 0.0300245 -0.203493)
(-0.000236565 -8.65167e-05 -0.000215776 -0.0252919 0.0299561 -0.203417)
(-0.00195116 -0.000409455 -0.00167034 -0.0249549 0.0294178 -0.203753)
(-0.017769 -0.000771338 -0.00857589 -0.0235831 0.0267849 -0.205719)
(-0.0860756 -0.00177587 -0.0503769 -0.0220331 0.026388 -0.152245)
(-0.0887526 0.00139758 0.0521365 -0.0139552 0.0164761 -0.151231)
(-0.0183685 0.000608572 0.00896425 -0.0148868 0.0163862 -0.206537)
(-0.0020325 0.000319655 0.00181867 -0.0159442 0.0181929 -0.204475)
(-0.000259789 7.37191e-05 0.000236665 -0.0161976 0.0187224 -0.204174)
(-3.14603e-05 7.94285e-06 4.94618e-05 -0.0161865 0.0187627 -0.204241)
(-4.38525e-06 -2.37518e-06 2.93822e-05 -0.0162046 0.0188431 -0.204277)
(-1.7164e-06 -3.83192e-06 2.27032e-05 -0.0161598 0.0187695 -0.204255)
(-1.80669e-06 1.56366e-06 2.17266e-05 -0.0161999 0.0187578 -0.204263)
(-9.99182e-07 -1.63079e-06 1.05678e-05 -0.0161923 0.0188304 -0.204276)
(-2.18934e-07 -2.85689e-06 2.54236e-06 -0.0161924 0.0187071 -0.204249)
(-8.72677e-07 -1.43065e-06 7.91214e-06 -0.0161717 0.0187474 -0.204253)
(-1.30605e-06 2.9688e-07 9.09192e-06 -0.0161942 0.0187073 -0.204227)
(9.37345e-08 4.6807e-06 -1.42735e-06 -0.0162121 0.0187173 -0.204251)
(2.42775e-07 7.60401e-07 2.24699e-06 -0.016212 0.0187712 -0.204262)
(-7.8444e-07 -2.47916e-06 3.6822e-07 -0.0161984 0.0187548 -0.20426)
(1.07213e-07 1.74574e-06 -2.68509e-06 -0.0161965 0.0187089 -0.204251)
(5.84881e-07 6.82712e-07 -9.09734e-08 -0.0162122 0.01877 -0.204264)
(-3.62178e-07 -4.15019e-06 1.29776e-06 -0.0161977 0.0187545 -0.204261)
(-7.94781e-07 -1.39745e-06 -2.30595e-06 -0.0161954 0.018706 -0.204227)
(-1.53204e-06 1.3287e-06 -5.40538e-06 -0.0162044 0.0187528 -0.204257)
(-1.13175e-06 2.94871e-06 -1.90873e-05 -0.0162073 0.0187558 -0.204239)
(1.33413e-07 1.78901e-06 -1.3179e-05 -0.0161888 0.0187662 -0.204261)
(-1.49641e-06 -4.76887e-07 -5.63163e-06 -0.0161985 0.0187563 -0.204264)
(-1.93043e-06 6.9069e-07 -2.92742e-05 -0.0161894 0.0187811 -0.204242)
(-3.31046e-06 3.95842e-07 -2.71964e-05 -0.0161809 0.0187835 -0.204256)
(-3.23896e-05 -8.25737e-06 -3.75055e-05 -0.0162175 0.018766 -0.20424)
(-0.000261096 -7.24205e-05 -0.000247863 -0.016193 0.0186646 -0.204132)
(-0.0020321 -0.000316532 -0.0018204 -0.0159526 0.0182025 -0.204492)
(-0.0183655 -0.000607266 -0.00896673 -0.0148867 0.0163853 -0.206534)
(-0.0887519 -0.00139654 -0.0521236 -0.0139429 0.0165416 -0.151235)
(-0.0904091 0.000964075 0.0534196 -0.00882398 0.0102451 -0.150955)
(-0.0188046 0.000447685 0.00929452 -0.00930173 0.00999694 -0.207533)
(-0.00209931 0.000237636 0.00193329 -0.0101033 0.0113178 -0.205471)
(-0.000279338 5.82615e-05 0.000277501 -0.0103161 0.0116728 -0.20515)
(-3.67676e-05 6.78676e-06 5.22742e-05 -0.0103235 0.011766 -0.205217)
(-4.95204e-06 -9.40612e-07 2.03361e-05 -0.0103411 0.0117241 -0.205246)
(-1.3556e-06 -2.69046e-06 2.24121e-05 -0.0103054 0.0117636 -0.205231)
(-1.85367e-06 -1.31989e-06 2.12121e-05 -0.0103228 0.0117041 -0.205244)
(-9.42546e-07 -2.36689e-07 2.80506e-06 -0.0103326 0.0117138 -0.205247)
(-2.47988e-07 -1.91469e-07 9.57293e-06 -0.0103011 0.0117025 -0.205241)
(-1.21472e-06 -1.46576e-06 6.69215e-06 -0.010311 0.0117569 -0.205249)
(-5.62083e-07 -1.61729e-06 -4.90675e-06 -0.0103066 0.011703 -0.205232)
(6.47261e-07 2.68834e-06 8.1629e-06 -0.0103076 0.0116696 -0.205225)
(-4.73344e-07 5.76384e-07 9.41114e-06 -0.0103296 0.011713 -0.20524)
(-9.25492e-07 -7.53885e-07 -7.24524e-06 -0.0103223 0.011703 -0.205241)
(4.08318e-07 1.23981e-06 -1.9014e-06 -0.0103044 0.0117035 -0.205237)
(2.18425e-08 -5.33382e-07 6.78027e-06 -0.0103296 0.0117117 -0.205242)
(-6.20279e-07 -2.64348e-06 -8.19373e-06 -0.0103215 0.0117033 -0.205242)
(-1.84602e-07 -1.93054e-06 -2.65613e-06 -0.0103078 0.0117011 -0.205236)
(-1.00974e-06 -8.68126e-07 2.62151e-06 -0.0103182 0.011659 -0.205228)
(-1.00807e-06 4.78112e-06 -1.08765e-05 -0.0103251 0.0116647 -0.205212)
(-5.4475e-07 2.87428e-06 -1.19704e-05 -0.0103231 0.0117709 -0.205253)
(-1.83096e-06 -1.38744e-06 -2.09368e-05 -0.0103219 0.0117044 -0.205245)
(-1.41036e-06 2.00104e-06 -2.90893e-05 -0.0103144 0.0117129 -0.205237)
(-3.89684e-06 -1.33535e-06 -1.86743e-05 -0.0103102 0.0117321 -0.205236)
(-3.72192e-05 -8.67841e-06 -4.74748e-05 -0.010326 0.0116665 -0.20521)
(-0.000280108 -5.41577e-05 -0.000280044 -0.0103042 0.0116654 -0.205116)
(-0.00209924 -0.000235718 -0.00192894 -0.0101088 0.0113218 -0.205465)
(-0.0188026 -0.000447388 -0.00929747 -0.00930288 0.00999521 -0.207528)
(-0.0904043 -0.000965233 -0.0534143 -0.00883088 0.010257 -0.15096)
(-0.091427 0.000612195 0.054268 -0.00557091 0.00640389 -0.150935)
(-0.0190906 0.000310743 0.00955683 -0.00577165 0.0061522 -0.208328)
(-0.00214948 0.000172068 0.00202084 -0.00638155 0.00711723 -0.206276)
(-0.000294131 4.17011e-05 0.000289523 -0.0065402 0.00732849 -0.205949)
(-4.02217e-05 5.42278e-06 5.44749e-05 -0.00656144 0.00736612 -0.206014)
(-5.53881e-06 1.07117e-06 2.63925e-05 -0.00656046 0.00736882 -0.206045)
(-1.5351e-06 -1.95189e-06 2.06517e-05 -0.00655493 0.00741444 -0.206053)
(-1.52628e-06 -2.02345e-06 1.45453e-05 -0.00654851 0.00735531 -0.206047)
(-8.03574e-07 1.56557e-06 9.90217e-06 -0.00655455 0.00736245 -0.206048)
(-5.88631e-07 -2.30822e-07 8.85557e-06 -0.0065411 0.00740514 -0.206053)
(-1.20791e-06 -1.92232e-06 5.65161e-06 -0.00655242 0.00736011 -0.206045)
(-2.37769e-07 1.46278e-06 -4.48867e-06 -0.00653725 0.00736715 -0.206042)
(6.9245e-07 9.8311e-07 2.48593e-06 -0.00653062 0.00740956 -0.206042)
(-4.66026e-07 -2.20283e-06 9.26727e-06 -0.00655199 0.00736091 -0.206042)
(-8.46656e-07 1.09971e-06 -2.33984e-07 -0.00654966 0.00735449 -0.206044)
(6.0861e-08 9.50261e-07 -1.35765e-06 -0.006543 0.00740492 -0.20605)
(-1.86804e-07 -2.05213e-06 -7.31197e-07 -0.00655209 0.00735955 -0.206045)
(-6.48171e-07 -1.27482e-06 -2.29906e-06 -0.00654802 0.00735522 -0.206044)
(-4.16938e-07 -5.24831e-07 -1.01118e-05 -0.00654184 0.00736532 -0.206042)
(-3.63582e-07 -1.26317e-06 -1.19553e-05 -0.00653241 0.00735246 -0.206035)
(-2.25347e-07 2.44327e-06 -2.47101e-06 -0.00652892 0.00731819 -0.206031)
(-8.65707e-07 2.20522e-06 -3.4023e-06 -0.0065598 0.00736804 -0.206047)
(-2.15177e-06 8.2188e-07 -1.41756e-05 -0.00654812 0.00735631 -0.206048)
(-1.75646e-06 3.63378e-06 -2.83982e-05 -0.00654852 0.00741185 -0.206053)
(-4.5616e-06 -1.66768e-06 -3.23834e-05 -0.00654451 0.00741983 -0.206044)
(-4.00162e-05 -9.08819e-06 -4.40537e-05 -0.00653643 0.00735729 -0.206016)
(-0.000294667 -4.02518e-05 -0.000282843 -0.00653521 0.00733305 -0.205939)
(-0.00214988 -0.000170875 -0.00202254 -0.00638582 0.00711823 -0.206268)
(-0.0190897 -0.000310341 -0.00956119 -0.00577371 0.0061512 -0.208305)
(-0.0914235 -0.000613458 -0.0542654 -0.00557516 0.00641315 -0.15094)
(-0.0920535 0.000369157 0.0547933 -0.00351726 0.00401855 -0.150963)
(-0.0192657 0.000204348 0.00973366 -0.00357631 0.00381854 -0.208854)
(-0.00218358 0.000121959 0.00208576 -0.00402954 0.00444399 -0.206805)
(-0.000305163 3.07419e-05 0.000303832 -0.00414108 0.00462635 -0.206489)
(-4.27849e-05 4.2929e-06 5.52393e-05 -0.00415838 0.00465488 -0.20657)
(-6.01555e-06 8.90954e-07 2.63623e-05 -0.00415711 0.00465604 -0.206588)
(-1.66179e-06 -1.28334e-06 1.96574e-05 -0.00416241 0.00466047 -0.206592)
(-1.28733e-06 -1.16894e-06 1.43987e-05 -0.00414967 0.00464852 -0.206591)
(-7.61279e-07 8.95737e-07 1.03975e-05 -0.00415299 0.00465235 -0.206591)
(-9.45085e-07 -1.77686e-07 8.82288e-06 -0.00415635 0.00465615 -0.206577)
(-9.26295e-07 -3.51627e-07 -2.0603e-06 -0.00415224 0.00465332 -0.206588)
(2.52527e-07 2.33725e-06 2.49485e-06 -0.00414146 0.00465581 -0.206582)
(1.85246e-07 -1.41927e-07 9.90244e-06 -0.00415349 0.00470118 -0.20659)
(-6.23899e-07 -3.19228e-06 2.07044e-06 -0.00415162 0.00465243 -0.206587)
(-4.93491e-07 4.57259e-07 2.86336e-09 -0.00415433 0.00464777 -0.206587)
(-1.4064e-07 9.90841e-07 -9.65388e-07 -0.00415672 0.00465583 -0.206577)
(-5.33747e-07 -1.24117e-06 -1.33424e-06 -0.0041514 0.0046511 -0.206589)
(-4.14852e-07 -1.05267e-06 -9.42313e-06 -0.00415049 0.00464809 -0.206588)
(-5.47806e-08 9.12644e-07 -3.54411e-06 -0.00413838 0.00461984 -0.206563)
(-4.16945e-07 1.7297e-06 -5.68516e-06 -0.00414834 0.00469055 -0.206588)
(-1.72971e-07 5.03002e-07 -8.07706e-06 -0.00413148 0.00469455 -0.206588)
(-8.56669e-07 -7.99518e-07 -2.48905e-06 -0.00415666 0.00465737 -0.206588)
(-1.95526e-06 5.43081e-07 -1.43109e-05 -0.00414956 0.00464968 -0.206591)
(-1.70841e-06 3.62486e-06 -2.05419e-05 -0.00415976 0.00465838 -0.20659)
(-5.80864e-06 3.30522e-07 -2.56103e-05 -0.00416237 0.00470692 -0.206589)
(-4.2835e-05 -8.30574e-06 -6.09149e-05 -0.00414775 0.00469319 -0.206569)
(-0.000304874 -3.18055e-05 -0.000303894 -0.00413092 0.0045906 -0.206472)
(-0.00218384 -0.000120898 -0.00207975 -0.00403232 0.00444313 -0.206797)
(-0.0192657 -0.000203497 -0.00973635 -0.00357651 0.00381653 -0.208853)
(-0.0920519 -0.000369987 -0.0547927 -0.00351786 0.00402535 -0.150966)
(-0.0924382 0.000216187 0.055106 -0.00222739 0.00252091 -0.150988)
(-0.0193685 0.00013 0.00984912 -0.0022241 0.00237969 -0.209178)
(-0.00220535 8.44911e-05 0.00213234 -0.00254241 0.00279448 -0.207138)
(-0.00031313 2.20446e-05 0.000314447 -0.00262751 0.00292319 -0.206829)
(-4.46984e-05 3.25444e-06 5.76657e-05 -0.0026452 0.0029453 -0.206901)
(-6.42023e-06 9.97483e-07 2.65887e-05 -0.00264065 0.00294478 -0.20693)
(-1.78057e-06 -7.66033e-07 1.90194e-05 -0.00264333 0.00294812 -0.206933)
(-1.17428e-06 -7.37566e-07 1.39101e-05 -0.00263577 0.0029408 -0.206934)
(-7.33117e-07 2.71371e-07 1.04634e-05 -0.00263755 0.00294277 -0.206934)
(-8.23256e-07 -1.54449e-07 8.65167e-06 -0.00264032 0.0029469 -0.206922)
(-7.53645e-07 1.29729e-06 4.67416e-06 -0.00263774 0.00294401 -0.206929)
(-3.45808e-09 1.37267e-06 2.98961e-06 -0.00263799 0.00298636 -0.206931)
(-1.64481e-07 -1.32631e-06 3.18609e-06 -0.00264681 0.00295175 -0.206928)
(-5.07873e-07 -2.87973e-06 1.39893e-06 -0.00263692 0.00294377 -0.20693)
(-1.65601e-07 8.87567e-08 -1.51549e-07 -0.00263341 0.00290509 -0.206924)
(-1.92311e-07 1.61756e-06 -6.21274e-07 -0.00263926 0.00294576 -0.206931)
(-7.29512e-07 -9.02358e-07 -1.53813e-06 -0.00263638 0.00294282 -0.206932)
(-3.38922e-07 1.25295e-06 -9.92503e-06 -0.0026397 0.00294026 -0.20693)
(2.5704e-07 -9.15041e-08 -3.46565e-06 -0.00262195 0.00298604 -0.206928)
(-3.239e-07 2.03607e-07 1.43489e-06 -0.00263848 0.00290896 -0.206922)
(-5.43062e-07 1.2816e-06 -7.41683e-06 -0.00264253 0.00298734 -0.206933)
(-9.27905e-07 -1.49136e-06 -8.97618e-06 -0.00264082 0.00294563 -0.206929)
(-1.60029e-06 3.80199e-07 -1.40905e-05 -0.00263577 0.00294182 -0.206933)
(-1.72081e-06 2.04612e-06 -1.95287e-05 -0.00264236 0.00294713 -0.206932)
(-6.54095e-06 -1.33295e-08 -2.57871e-05 -0.00265204 0.0029532 -0.206927)
(-4.49092e-05 -4.102e-06 -6.33836e-05 -0.00264421 0.00294483 -0.206907)
(-0.000312547 -2.31833e-05 -0.000314683 -0.00262052 0.00296288 -0.206819)
(-0.00220545 -8.53034e-05 -0.00212589 -0.00254533 0.0027924 -0.207131)
(-0.0193691 -0.000128646 -0.00985149 -0.00222283 0.00237869 -0.209179)
(-0.0924384 -0.000216646 -0.055107 -0.00222351 0.00252594 -0.150991)
(-0.0926775 0.000125076 0.0552878 -0.00140851 0.00153434 -0.151002)
(-0.0194274 8.14631e-05 0.0099212 -0.00139518 0.00147968 -0.209373)
(-0.00221876 5.71088e-05 0.00216494 -0.001614 0.00174843 -0.207344)
(-0.000318775 1.47668e-05 0.000322012 -0.00167777 0.00183806 -0.207039)
(-4.59617e-05 2.31464e-06 5.76769e-05 -0.00168606 0.00181776 -0.20712)
(-6.67617e-06 1.66138e-06 2.70766e-05 -0.00168913 0.00185313 -0.207142)
(-1.96175e-06 -3.72622e-07 1.86169e-05 -0.00168989 0.00185483 -0.207145)
(-1.14836e-06 -4.60803e-07 1.35266e-05 -0.00168554 0.00185137 -0.207147)
(-7.17348e-07 7.77027e-08 1.0044e-05 -0.00168645 0.00185258 -0.207147)
(-6.99358e-07 -1.85521e-07 8.2583e-06 -0.00168691 0.00185476 -0.207147)
(-6.24158e-07 4.16998e-07 5.21243e-06 -0.00168775 0.0018531 -0.207142)
(-1.42234e-07 8.92217e-07 3.52851e-06 -0.0016986 0.00185744 -0.20714)
(-5.28066e-07 -3.27311e-07 3.07806e-06 -0.00169213 0.00185869 -0.20714)
(-4.57674e-07 -1.17374e-06 -5.99768e-06 -0.00168618 0.00185381 -0.207142)
(3.25389e-07 1.21103e-07 -1.56836e-07 -0.00167465 0.00185107 -0.207137)
(-2.78463e-07 5.05801e-07 6.43721e-06 -0.00168648 0.00185555 -0.207144)
(-7.49073e-07 -1.47615e-06 -1.75965e-06 -0.00168529 0.00185344 -0.207145)
(-3.33024e-07 2.00472e-06 -3.22368e-06 -0.00168235 0.00181691 -0.207138)
(-1.04202e-07 1.34607e-06 -9.99954e-06 -0.0016885 0.00189712 -0.207144)
(-4.30288e-08 -2.08539e-06 -4.89784e-06 -0.00167784 0.00185382 -0.207134)
(-4.03789e-07 4.09658e-08 -4.3482e-07 -0.00169184 0.00182521 -0.207136)
(-1.08966e-06 5.26893e-08 -9.25252e-06 -0.00169038 0.00185319 -0.207142)
(-1.44704e-06 3.79545e-07 -1.38467e-05 -0.00168551 0.00185226 -0.207146)
(-1.77208e-06 1.07846e-06 -1.87851e-05 -0.00168964 0.00185449 -0.207143)
(-6.8615e-06 -2.96233e-07 -2.58088e-05 -0.00169496 0.00185794 -0.207138)
(-4.64224e-05 -2.98688e-06 -5.83738e-05 -0.00169247 0.00185269 -0.207118)
(-0.000318324 -1.67536e-05 -0.000323085 -0.00168437 0.00184292 -0.207027)
(-0.00221856 -5.75282e-05 -0.00216508 -0.00161926 0.00174586 -0.207337)
(-0.0194283 -7.8878e-05 -0.00992317 -0.0013948 0.00147942 -0.209374)
(-0.0926751 -0.000124774 -0.0552905 -0.00141283 0.00157598 -0.151011)
(-0.0928235 7.17284e-05 0.0553874 -0.000896269 0.00096724 -0.151014)
(-0.0194607 4.82285e-05 0.00997484 -0.000890406 0.000908192 -0.209492)
(-0.00222695 3.73795e-05 0.00218706 -0.00104011 0.00107818 -0.207471)
(-0.000322592 1.09951e-05 0.000321056 -0.00108743 0.00113876 -0.207168)
(-4.6663e-05 1.51495e-06 5.83839e-05 -0.00108635 0.00114873 -0.20725)
(-6.86722e-06 3.85267e-07 3.38853e-05 -0.0010982 0.00114784 -0.207274)
(-2.20763e-06 -4.72232e-08 1.84235e-05 -0.00109704 0.00114936 -0.207277)
(-1.13619e-06 -2.59076e-07 1.32909e-05 -0.00109457 0.0011479 -0.207278)
(-7.0993e-07 1.63368e-07 9.97436e-06 -0.00109507 0.00114879 -0.207278)
(-6.98465e-07 -2.82723e-07 8.0793e-06 -0.00109547 0.00115119 -0.207278)
(-5.18946e-07 -8.2062e-07 5.4261e-06 -0.00109756 0.00114809 -0.207273)
(-1.00686e-07 7.37417e-07 3.92951e-06 -0.0010968 0.00111772 -0.207267)
(-5.34926e-07 7.87119e-07 2.92781e-06 -0.00109814 0.00115214 -0.207272)
(-4.73381e-07 1.53932e-07 2.18583e-07 -0.00109518 0.00114992 -0.207274)
(1.68386e-07 1.41555e-07 3.32938e-08 -0.00109658 0.00118412 -0.207274)
(-4.80881e-07 -4.21323e-07 1.66739e-07 -0.00109629 0.00115143 -0.207274)
(-5.50762e-07 -2.32191e-07 -8.76895e-06 -0.00109454 0.00115023 -0.207275)
(1.71077e-07 1.05914e-06 -2.8887e-06 -0.0010821 0.00114892 -0.20727)
(-4.17516e-07 9.74156e-07 3.40166e-06 -0.00110354 0.00115664 -0.207273)
(-4.99785e-07 -4.70684e-07 -1.16043e-05 -0.00109806 0.00118525 -0.207271)
(-8.75267e-08 -1.28563e-06 -6.98555e-06 -0.0010871 0.00115417 -0.207266)
(-9.02753e-07 -6.6673e-07 -2.87219e-06 -0.00110126 0.00114803 -0.207273)
(-1.48715e-06 5.34064e-07 -1.3608e-05 -0.00109439 0.00114897 -0.207277)
(-1.85833e-06 4.80918e-07 -1.84667e-05 -0.00109735 0.00114907 -0.207275)
(-7.28595e-06 -6.28619e-07 -2.59924e-05 -0.00109979 0.00115045 -0.207271)
(-4.75597e-05 -2.44992e-06 -6.59713e-05 -0.00110209 0.00114651 -0.207249)
(-0.000321854 -1.20196e-05 -0.000329128 -0.00108225 0.00110785 -0.207151)
(-0.00222611 -3.73998e-05 -0.00218069 -0.00103731 0.00104184 -0.207461)
(-0.0194619 -4.65291e-05 -0.00996649 -0.000891126 0.000908023 -0.209491)
(-0.092819 -7.0956e-05 -0.0553959 -0.000909423 0.000967342 -0.151025)
(-0.0929042 4.01808e-05 0.0554543 -0.0006071 0.000611087 -0.151032)
(-0.01948 2.67412e-05 0.00999016 -0.000589443 0.000536208 -0.209562)
(-0.00223098 2.31638e-05 0.00220142 -0.000693686 0.000638911 -0.207547)
(-0.000325087 7.86302e-06 0.000331946 -0.000730318 0.000677713 -0.207246)
(-4.76931e-05 4.47728e-07 5.97128e-05 -0.000741676 0.000717388 -0.207323)
(-6.95128e-06 -3.80997e-07 2.71398e-05 -0.00074149 0.000682023 -0.207354)
(-2.11595e-06 3.73383e-07 1.84158e-05 -0.000737077 0.000683648 -0.207357)
(-1.14167e-06 -1.2181e-07 1.31451e-05 -0.000735689 0.000683065 -0.207359)
(-7.26381e-07 3.15542e-08 1.00959e-05 -0.000736045 0.000683716 -0.207359)
(-8.45142e-07 -5.87788e-07 8.04356e-06 -0.000737646 0.000685586 -0.207349)
(-4.01801e-07 2.12824e-07 -1.33934e-06 -0.000740954 0.000682356 -0.207354)
(1.91595e-07 8.77546e-07 4.32603e-06 -0.000726542 0.000685746 -0.207346)
(-6.47817e-07 -1.59722e-07 9.54833e-06 -0.000737499 0.000685871 -0.207352)
(-6.07255e-07 -1.02618e-06 8.0723e-08 -0.00073625 0.000684658 -0.207354)
(2.39696e-07 -8.68644e-08 2.7057e-07 -0.000739168 0.000651299 -0.20735)
(-3.46329e-07 8.49856e-07 3.23549e-07 -0.000738801 0.000685217 -0.207345)
(-5.23692e-07 1.28005e-06 -2.26187e-06 -0.000736513 0.000685451 -0.207346)
(-1.08326e-07 6.63735e-07 -2.58572e-06 -0.000733182 0.000720067 -0.207354)
(-3.40458e-07 -1.6375e-06 -3.18549e-06 -0.000741502 0.000688799 -0.207351)
(-4.40308e-07 9.90501e-07 -5.01734e-06 -0.0007393 0.000651835 -0.207348)
(-4.21662e-07 -7.3665e-07 -7.10229e-06 -0.000736025 0.000723169 -0.20735)
(-7.65172e-07 -1.63724e-06 -9.75863e-06 -0.000734871 0.000648682 -0.20735)
(-1.26382e-06 1.08889e-06 -1.35121e-05 -0.000736021 0.000684458 -0.207356)
(-2.0008e-06 1.16469e-07 -1.84702e-05 -0.000738086 0.000682912 -0.207356)
(-7.42901e-06 -1.23793e-06 -2.61754e-05 -0.000738357 0.000683745 -0.207352)
(-4.83397e-05 2.16265e-07 -6.6413e-05 -0.000734689 0.000647089 -0.207326)
(-0.000324432 -5.8381e-06 -0.000340253 -0.000719799 0.000714676 -0.207234)
(-0.00223022 -2.49877e-05 -0.00219529 -0.000680988 0.000637659 -0.207537)
(-0.0194804 -2.75793e-05 -0.00998509 -0.000590897 0.000534876 -0.20956)
(-0.0929041 -4.0056e-05 -0.0554517 -0.000604813 0.000573527 -0.151037)
(-0.0929524 2.07044e-05 0.0554877 -0.000436078 0.000263715 -0.151037)
(-0.0194903 1.51752e-05 0.010004 -0.000420608 0.000281098 -0.209602)
(-0.00223333 1.24479e-05 0.00221002 -0.000498049 0.000335813 -0.207591)
(-0.000326673 2.75272e-06 0.000335727 -0.000528232 0.000357034 -0.207282)
(-4.81052e-05 -5.97387e-07 5.86279e-05 -0.000539652 0.000325124 -0.207377)
(-6.84546e-06 1.32965e-06 2.74892e-05 -0.000529705 0.000325334 -0.207398)
(-2.18862e-06 1.13674e-06 1.8468e-05 -0.000532603 0.00036013 -0.207404)
(-1.23335e-06 -3.11029e-08 1.30595e-05 -0.00053197 0.000360047 -0.207405)
(-8.04948e-07 -1.24692e-07 9.79223e-06 -0.000532232 0.000360486 -0.207405)
(-6.19931e-07 -1.25987e-06 7.54557e-06 -0.000533099 0.00036023 -0.207404)
(-2.05631e-07 1.37389e-06 5.68002e-06 -0.000529589 0.000325811 -0.207398)
(-1.67097e-07 1.43458e-06 4.71489e-06 -0.000531707 0.000396694 -0.207396)
(-9.26108e-07 -1.17659e-06 2.80966e-06 -0.000534089 0.000362451 -0.207398)
(-4.79802e-07 -1.96037e-07 -6.72471e-06 -0.000532372 0.000361317 -0.2074)
(5.62143e-07 -3.90535e-07 -8.90741e-08 -0.000524859 0.000361466 -0.207394)
(-1.95944e-07 1.97097e-08 6.96124e-06 -0.000535268 0.000359009 -0.2074)
(-6.04942e-07 9.04713e-07 -1.73577e-06 -0.000532991 0.0003613 -0.207401)
(-4.0919e-07 3.34247e-07 -2.03718e-06 -0.000538027 0.000363076 -0.2074)
(-3.42344e-07 -1.79313e-07 -9.77049e-06 -0.000536177 0.000362259 -0.207389)
(-3.03033e-07 4.93422e-07 -4.82981e-06 -0.000523378 0.000362443 -0.207393)