/*--------------------------------*- C++ -*----------------------------------*\
| =========                 |                                                 |
| \\      /  F ield         | OpenFOAM: The Open Source CFD Toolbox           |
|  \\    /   O peration     | Version:  2106                                  |
|   \\  /    A nd           | Website:  www.openfoam.com                      |
|    \\/     M anipulation  |                                                 |
\*---------------------------------------------------------------------------*/
FoamFile
{
    version     2.0;
    format      ascii;
    arch        "LSB;label=32;scalar=64";
    class       volSymmTensorField;
    location    "349";
    object      sigma;
}
// * * * * * * * * * * * * * * * * * * * * * * * * * * * * * * * * * * * * * //

dimensions      [1 -1 -2 0 0 0 0];

internalField   nonuniform List<symmTensor> 
9000
(
(5.39428e+07 -136425 2.48555e+07 2.21939e+07 3.1687e+07 8.50492e+07)
(9.63472e+07 277269 4.84747e+06 2.42751e+07 3.36041e+07 6.90399e+07)
(1.10964e+08 173225 1.32883e+06 2.61186e+07 3.5682e+07 8.12778e+07)
(1.12767e+08 26162.2 235528 2.62587e+07 3.61418e+07 8.33508e+07)
(1.12983e+08 -4041.83 21651.7 2.62954e+07 3.61556e+07 8.34245e+07)
(1.12995e+08 -967.241 9098.01 2.63713e+07 3.60481e+07 8.32747e+07)
(1.12994e+08 20.5884 12216 2.63042e+07 3.61327e+07 8.33322e+07)
(1.13003e+08 -3011.71 3004.72 2.63802e+07 3.60492e+07 8.3281e+07)
(1.13001e+08 3311.54 14604.2 2.63787e+07 3.60483e+07 8.32782e+07)
(1.13014e+08 3406.63 -5274.1 2.63063e+07 3.6144e+07 8.34036e+07)
(1.13021e+08 -3126.69 -24993.1 2.63679e+07 3.60845e+07 8.33439e+07)
(1.13003e+08 -271.143 19374.5 2.64377e+07 3.59888e+07 8.32097e+07)
(1.13009e+08 2711.47 28202.6 2.63052e+07 3.61388e+07 8.33856e+07)
(1.13007e+08 443.118 -15199.2 2.62939e+07 3.61427e+07 8.33873e+07)
(1.13026e+08 516.3 2144.83 2.6364e+07 3.60903e+07 8.33615e+07)
(1.1302e+08 -643.301 15342.7 2.63053e+07 3.61478e+07 8.34174e+07)
(1.13008e+08 118.928 -19163 2.62943e+07 3.61426e+07 8.3386e+07)
(1.13022e+08 367.434 -1123.2 2.63629e+07 3.60899e+07 8.33583e+07)
(1.13015e+08 -3444.56 -11929.2 2.63094e+07 3.61406e+07 8.33946e+07)
(1.13007e+08 -3286.49 -12565.3 2.64407e+07 3.59906e+07 8.32227e+07)
(1.12997e+08 2989.32 21604.2 2.63812e+07 3.60439e+07 8.32571e+07)
(1.13009e+08 3347.13 4719.91 2.63012e+07 3.61408e+07 8.33904e+07)
(1.13015e+08 -3055.03 -15458.7 2.63056e+07 3.61447e+07 8.34023e+07)
(1.13003e+08 -443.316 -12794.3 2.63751e+07 3.60507e+07 8.32858e+07)
(1.13003e+08 857.079 -12030.5 2.63032e+07 3.61366e+07 8.33767e+07)
(1.12973e+08 962.65 -48460 2.63682e+07 3.60635e+07 8.33148e+07)
(1.12769e+08 -23664.8 -229695 2.6323e+07 3.6078e+07 8.32792e+07)
(1.10954e+08 -173116 -1.30922e+06 2.61109e+07 3.56764e+07 8.12564e+07)
(9.63451e+07 -276775 -4.84641e+06 2.42748e+07 3.36039e+07 6.904e+07)
(5.39415e+07 136404 -2.48563e+07 2.21923e+07 3.1685e+07 8.50463e+07)
(4.17513e+07 -6286.35 2.39874e+07 2.85045e+07 3.51849e+07 1.25829e+07)
(7.28696e+07 351846 4.14678e+06 2.809e+07 3.70223e+07 -8.94237e+06)
(8.60156e+07 223152 800467 3.05903e+07 3.93367e+07 -1.42621e+06)
(8.73491e+07 36611.9 120584 3.04971e+07 3.9935e+07 -562410)
(8.74928e+07 -3228.87 17328.4 3.05363e+07 3.99521e+07 -534514)
(8.76095e+07 -1574.81 15794.8 3.07528e+07 3.99187e+07 -435154)
(8.75307e+07 341.693 12316.3 3.05861e+07 3.99252e+07 -520147)
(8.76253e+07 -839.395 -2510.9 3.07788e+07 3.99224e+07 -418831)
(8.76233e+07 1038 16103.3 3.0775e+07 3.99198e+07 -422794)
(8.75217e+07 3703.42 15894.4 3.05639e+07 3.99322e+07 -528797)
(8.7581e+07 1719.34 -6392.41 3.06721e+07 4.00235e+07 -453172)
(8.76895e+07 -3008.45 1194.76 3.0891e+07 4.00077e+07 -333544)
(8.75213e+07 -3616.95 10763.9 3.05632e+07 3.99248e+07 -529694)
(8.75407e+07 3181.65 916.729 3.05947e+07 3.98537e+07 -501586)
(8.75756e+07 1952.43 -187.57 3.06585e+07 4.00313e+07 -457470)
(8.75203e+07 -4604.75 -1067.3 3.05573e+07 3.99374e+07 -527765)
(8.75408e+07 2666.38 -297.624 3.05951e+07 3.98538e+07 -502249)
(8.75747e+07 1941.05 -1161.11 3.06577e+07 4.00307e+07 -459004)
(8.75251e+07 -1127.31 -11829.5 3.05724e+07 3.99272e+07 -527357)
(8.7684e+07 -990.221 -13217.7 3.08856e+07 4.00149e+07 -344150)
(8.76353e+07 -2120.91 3674.53 3.07961e+07 3.99122e+07 -406781)
(8.75138e+07 985.225 3966.3 3.05507e+07 3.99271e+07 -540487)
(8.75197e+07 -601.745 -18179.4 3.05615e+07 3.99343e+07 -532432)
(8.7618e+07 -924.163 -10837.5 3.07634e+07 3.99227e+07 -425910)
(8.7514e+07 1776.77 -14353.1 3.05582e+07 3.99208e+07 -537710)
(8.75958e+07 5017.98 -26630.1 3.07459e+07 3.99452e+07 -421119)
(8.74147e+07 -37993.7 -110197 3.06192e+07 4.00193e+07 -480063)
(8.60328e+07 -225702 -801197 3.06257e+07 3.9254e+07 -1.40782e+06)
(7.28709e+07 -350098 -4.1479e+06 2.80919e+07 3.70214e+07 -8.9398e+06)
(4.17503e+07 6297.24 -2.3988e+07 2.85009e+07 3.51801e+07 1.25819e+07)
(4.53349e+07 604662 2.4125e+07 5.50064e+07 3.00176e+07 5.58333e+06)
(8.00933e+07 449242 4.06408e+06 5.7552e+07 3.12964e+07 -1.55625e+07)
(9.39289e+07 267924 710111 6.21682e+07 3.33965e+07 -8.27018e+06)
(9.53064e+07 50676.4 89297.6 6.23302e+07 3.40047e+07 -7.57138e+06)
(9.54422e+07 -371.737 29400.7 6.2378e+07 3.40269e+07 -7.55288e+06)
(9.55232e+07 -2517.11 17512.7 6.25053e+07 3.40846e+07 -7.45715e+06)
(9.54693e+07 1208.34 11868.5 6.24105e+07 3.39972e+07 -7.53674e+06)
(9.55203e+07 2324 10140.2 6.2504e+07 3.41361e+07 -7.47034e+06)
(9.55164e+07 -1492.02 2495.79 6.24947e+07 3.41332e+07 -7.47516e+06)
(9.5469e+07 -1415.19 3204.08 6.24074e+07 3.40086e+07 -7.54193e+06)
(9.5479e+07 1603.14 8527.13 6.24235e+07 3.39965e+07 -7.52273e+06)
(9.55354e+07 -1385.19 1401.03 6.2525e+07 3.41248e+07 -7.44188e+06)
(9.5498e+07 -1724.36 -11297.8 6.24469e+07 3.39531e+07 -7.48766e+06)
(9.55092e+07 1915.19 23.8325 6.24826e+07 3.40102e+07 -7.49206e+06)
(9.54746e+07 280.761 6453.68 6.24159e+07 3.4005e+07 -7.52857e+06)
(9.54665e+07 -490.238 -8489.79 6.24028e+07 3.4014e+07 -7.54229e+06)
(9.55078e+07 242.725 554.617 6.24812e+07 3.40102e+07 -7.49427e+06)
(9.54754e+07 135.297 6641.35 6.24161e+07 3.40043e+07 -7.52874e+06)
(9.54708e+07 1191.32 2320.06 6.24133e+07 3.40035e+07 -7.53872e+06)
(9.55312e+07 1439.3 717.684 6.25207e+07 3.41254e+07 -7.4518e+06)
(9.55288e+07 -2802.73 -9715.4 6.25178e+07 3.41328e+07 -7.45694e+06)
(9.54813e+07 -1325.78 -10557.3 6.24248e+07 3.39568e+07 -7.52031e+06)
(9.5467e+07 2564 -5415.19 6.24063e+07 3.40116e+07 -7.54452e+06)
(9.55109e+07 -2072.25 -9828.6 6.24854e+07 3.41349e+07 -7.48084e+06)
(9.54772e+07 2033.02 -14771.9 6.24219e+07 3.39502e+07 -7.51867e+06)
(9.54956e+07 2243.64 -24185.8 6.24728e+07 3.41564e+07 -7.47721e+06)
(9.53229e+07 -52877.7 -99451.7 6.23594e+07 3.39857e+07 -7.54439e+06)
(9.3969e+07 -267782 -713289 6.22454e+07 3.33863e+07 -8.22417e+06)
(8.00967e+07 -449504 -4.05842e+06 5.75559e+07 3.12957e+07 -1.55579e+07)
(4.53327e+07 -604536 -2.41251e+07 5.49979e+07 3.00115e+07 5.57969e+06)
(4.9763e+07 936276 2.4962e+07 7.38602e+07 2.11132e+07 1.24283e+07)
(8.85236e+07 453764 4.20448e+06 7.81278e+07 2.18126e+07 -8.60371e+06)
(1.03358e+08 255210 771590 8.41437e+07 2.35365e+07 -647593)
(1.04869e+08 51834.1 99764.9 8.45277e+07 2.39907e+07 156650)
(1.05017e+08 -281.894 21803.9 8.45744e+07 2.40143e+07 175078)
(1.05076e+08 -3352.1 17831.5 8.46549e+07 2.3962e+07 243797)
(1.05054e+08 713.708 16239.3 8.46193e+07 2.39561e+07 207255)
(1.05036e+08 779.91 8403.62 8.45923e+07 2.4e+07 177985)
(1.05057e+08 261.198 4844.18 8.46155e+07 2.39624e+07 217785)
(1.05045e+08 211.422 4521.09 8.46041e+07 2.4e+07 188115)
(1.05047e+08 -1077.34 6156.13 8.46093e+07 2.39936e+07 193988)
(1.05054e+08 404.998 -3473.48 8.46137e+07 2.39899e+07 213129)
(1.05075e+08 3113.85 -2443.76 8.46571e+07 2.40011e+07 228779)
(1.05054e+08 479.285 5086.55 8.46255e+07 2.40854e+07 194538)
(1.05047e+08 -1792.2 -340.042 8.46098e+07 2.40014e+07 191965)
(1.05043e+08 2145.18 -1553.38 8.45999e+07 2.40053e+07 185256)
(1.05052e+08 -326.349 500.605 8.4623e+07 2.40853e+07 191468)
(1.05048e+08 -2162.7 588.559 8.46107e+07 2.40007e+07 192438)
(1.05056e+08 -787.105 146.173 8.46171e+07 2.39955e+07 211032)
(1.05042e+08 -400.194 -1782.49 8.46019e+07 2.39941e+07 187658)
(1.0505e+08 622.43 -12146.9 8.46087e+07 2.39949e+07 204548)
(1.05074e+08 794.814 -8677.45 8.46511e+07 2.39979e+07 231786)
(1.05043e+08 -717.412 -2239.56 8.4604e+07 2.40041e+07 184340)
(1.05043e+08 -1984.54 -14633.8 8.46005e+07 2.39634e+07 192710)
(1.05083e+08 2427.19 -15189.5 8.46657e+07 2.39572e+07 255013)
(1.05014e+08 -54.4256 -18656.1 8.45679e+07 2.40145e+07 175446)
(1.04878e+08 -50442.1 -100621 8.45445e+07 2.39777e+07 171523)
(1.03381e+08 -253971 -775120 8.41791e+07 2.36101e+07 -611146)
(8.85273e+07 -456542 -4.20615e+06 7.81313e+07 2.18122e+07 -8.59939e+06)
(4.97697e+07 -935903 -2.49613e+07 7.3874e+07 2.1074e+07 1.24453e+07)
(5.26209e+07 917145 2.59937e+07 8.5638e+07 1.36175e+07 1.84777e+07)
(9.39569e+07 397274 4.41765e+06 9.09588e+07 1.38178e+07 -2.99865e+06)
(1.09651e+08 212652 859652 9.77932e+07 1.51681e+07 5.54646e+06)
(1.11312e+08 44540.1 110303 9.83848e+07 1.54621e+07 6.49188e+06)
(1.11488e+08 2872.06 21450.8 9.84531e+07 1.54569e+07 6.53142e+06)
(1.11517e+08 -2337.31 11987.7 9.84926e+07 1.55321e+07 6.53388e+06)
(1.11529e+08 -1429.97 15636.7 9.85036e+07 1.54412e+07 6.55766e+06)
(1.11501e+08 1150.03 7720.43 9.84555e+07 1.548e+07 6.51641e+06)
(1.11519e+08 -61.5603 5487.37 9.84871e+07 1.54813e+07 6.54017e+06)
(1.11513e+08 -1116.28 9405.82 9.84653e+07 1.54752e+07 6.54042e+06)
(1.11518e+08 -1040.86 4703.69 9.84806e+07 1.5444e+07 6.54517e+06)
(1.11507e+08 2110.66 806.537 9.84617e+07 1.54764e+07 6.53056e+06)
(1.11506e+08 2514.6 -1750.67 9.84647e+07 1.55263e+07 6.51912e+06)
(1.11496e+08 -706.629 736.747 9.84406e+07 1.54882e+07 6.51123e+06)
(1.11507e+08 -1109.65 241.415 9.84637e+07 1.54777e+07 6.52548e+06)
(1.11502e+08 1304.41 -1827.8 9.84529e+07 1.54788e+07 6.51961e+06)
(1.11495e+08 -202.14 282.171 9.84387e+07 1.54878e+07 6.5086e+06)
(1.11508e+08 -1726.07 1339.45 9.84645e+07 1.54772e+07 6.52581e+06)
(1.11517e+08 -834.987 -746.09 9.84705e+07 1.54747e+07 6.5506e+06)
(1.11504e+08 -67.0161 -2780.97 9.84591e+07 1.54765e+07 6.52218e+06)
(1.11506e+08 1436.05 -6085.38 9.84608e+07 1.54794e+07 6.52624e+06)
(1.11517e+08 938.171 -7435.04 9.84823e+07 1.55006e+07 6.53661e+06)
(1.11504e+08 -643.419 -11727.6 9.84607e+07 1.54788e+07 6.52064e+06)
(1.11514e+08 -502.554 -14548.3 9.84788e+07 1.5478e+07 6.53474e+06)
(1.11529e+08 1240.29 -10070.4 9.85065e+07 1.54952e+07 6.55646e+06)
(1.11477e+08 -2567.27 -19163.1 9.84344e+07 1.54885e+07 6.51627e+06)
(1.11316e+08 -44630.8 -111311 9.83909e+07 1.54532e+07 6.50269e+06)
(1.09646e+08 -211223 -861665 9.77789e+07 1.51755e+07 5.54342e+06)
(9.39605e+07 -397905 -4.42398e+06 9.09612e+07 1.38173e+07 -2.99571e+06)
(5.2633e+07 -916104 -2.59876e+07 8.56702e+07 1.36126e+07 1.84988e+07)
(5.41933e+07 720960 2.68953e+07 9.27785e+07 8.49941e+06 2.19629e+07)
(9.69888e+07 313940 4.62432e+06 9.87848e+07 8.45305e+06 -80440.1)
(1.13367e+08 164898 938183 1.06191e+08 9.38506e+06 8.93449e+06)
(1.15117e+08 38028.9 122087 1.06895e+08 9.65819e+06 9.92484e+06)
(1.15313e+08 4097.42 25515.5 1.0698e+08 9.67895e+06 9.96931e+06)
(1.15315e+08 -1225.27 15157.2 1.06958e+08 9.72043e+06 9.93809e+06)
(1.15348e+08 -1976.75 11711.7 1.07013e+08 9.68248e+06 9.98155e+06)
(1.15326e+08 806.636 11207.9 1.0697e+08 9.67643e+06 9.95515e+06)
(1.15325e+08 -841.266 5451.52 1.06972e+08 9.71392e+06 9.94687e+06)
(1.15337e+08 -1473.76 1311.51 1.06984e+08 9.65032e+06 9.97303e+06)
(1.15345e+08 -738.017 4081.58 1.07003e+08 9.6711e+06 9.9787e+06)
(1.15346e+08 153.15 4690.19 1.06992e+08 9.65038e+06 9.99306e+06)
(1.15328e+08 2414.6 -736.315 1.06965e+08 9.65556e+06 9.96263e+06)
(1.15323e+08 392.263 1159.14 1.0696e+08 9.68335e+06 9.95206e+06)
(1.15329e+08 -1278.91 189.951 1.06973e+08 9.67493e+06 9.95916e+06)
(1.15335e+08 900.563 -1385.14 1.0698e+08 9.65121e+06 9.96959e+06)
(1.15322e+08 352.186 -46.9298 1.06959e+08 9.68275e+06 9.95002e+06)
(1.1533e+08 -2140.93 669.469 1.06974e+08 9.67474e+06 9.95917e+06)
(1.15346e+08 -720.89 -1189.55 1.06992e+08 9.64973e+06 9.99306e+06)
(1.15327e+08 685.428 -2788.44 1.06968e+08 9.67389e+06 9.959e+06)
(1.15335e+08 1521.13 -9846.4 1.06974e+08 9.67543e+06 9.97601e+06)
(1.15334e+08 922.885 -6798.55 1.06983e+08 9.68076e+06 9.96336e+06)
(1.15327e+08 -246.008 -2905.15 1.06971e+08 9.67566e+06 9.95522e+06)
(1.1534e+08 356.301 -15101.4 1.0699e+08 9.68848e+06 9.98016e+06)
(1.15337e+08 204.2 -14029.6 1.06991e+08 9.68973e+06 9.97038e+06)
(1.15299e+08 -4259.67 -19347.7 1.0695e+08 9.68066e+06 9.95578e+06)
(1.15137e+08 -37359 -127863 1.06918e+08 9.62839e+06 9.96705e+06)
(1.13356e+08 -163287 -939075 1.06175e+08 9.38998e+06 8.91479e+06)
(9.6993e+07 -313266 -4.6256e+06 9.87875e+07 8.45255e+06 -76425.5)
(5.41982e+07 -720425 -2.68886e+07 9.27894e+07 8.53321e+06 2.19658e+07)
(5.50586e+07 497330 2.75572e+07 9.71453e+07 5.28507e+06 2.3825e+07)
(9.86684e+07 230944 4.7947e+06 1.03571e+08 5.15705e+06 1.31061e+06)
(1.15524e+08 122588 997313 1.11395e+08 5.83845e+06 1.06123e+07)
(1.17347e+08 30054.9 143153 1.12169e+08 6.02154e+06 1.16613e+07)
(1.17549e+08 3501.04 26966.3 1.12243e+08 6.06964e+06 1.17044e+07)
(1.17559e+08 -485.227 10490.6 1.12227e+08 6.04804e+06 1.16826e+07)
(1.17586e+08 -1387.91 11561.6 1.1227e+08 6.06838e+06 1.17155e+07)
(1.17571e+08 -680.884 10942.5 1.12247e+08 6.03772e+06 1.16948e+07)
(1.17566e+08 -122.099 1447.03 1.12236e+08 6.04269e+06 1.16871e+07)
(1.17584e+08 -98.7718 4938.32 1.1227e+08 6.03688e+06 1.17083e+07)
(1.17575e+08 -756.13 3452.23 1.12256e+08 6.06494e+06 1.16953e+07)
(1.17585e+08 -834.301 -2531.21 1.12269e+08 6.03716e+06 1.17141e+07)
(1.17589e+08 1386.82 4210.94 1.12271e+08 6.0199e+06 1.17206e+07)
(1.17571e+08 297.335 4854.86 1.12243e+08 6.0423e+06 1.16958e+07)
(1.17574e+08 -388.901 -3737.55 1.12249e+08 6.03715e+06 1.16977e+07)
(1.17585e+08 639.572 -980.863 1.12269e+08 6.03742e+06 1.17101e+07)
(1.17571e+08 -275.152 3497.69 1.12242e+08 6.04163e+06 1.16938e+07)
(1.17574e+08 -1363.67 -4226.84 1.1225e+08 6.03727e+06 1.16976e+07)
(1.17583e+08 -995.896 -1370.2 1.12266e+08 6.03616e+06 1.171e+07)
(1.17581e+08 -447.834 1352.34 1.12259e+08 6.01443e+06 1.17125e+07)
(1.17586e+08 2466.4 -5610.78 1.1226e+08 6.01739e+06 1.1725e+07)
(1.17568e+08 1482.73 -6175.09 1.12243e+08 6.07215e+06 1.16858e+07)
(1.17571e+08 -715.729 -10800.5 1.12247e+08 6.03788e+06 1.16938e+07)
(1.17578e+08 1032.26 -15006.1 1.12258e+08 6.04227e+06 1.17049e+07)
(1.17578e+08 -688.858 -9633.35 1.12262e+08 6.05217e+06 1.17066e+07)
(1.17551e+08 -4476.87 -24490.5 1.12243e+08 6.01833e+06 1.17097e+07)
(1.17367e+08 -27938 -144464 1.12196e+08 6.01773e+06 1.17002e+07)
(1.15524e+08 -121598 -995068 1.11392e+08 5.84051e+06 1.0615e+07)
(9.86719e+07 -230791 -4.79622e+06 1.03572e+08 5.15616e+06 1.31552e+06)
(5.5058e+07 -497928 -2.75545e+07 9.71387e+07 5.29118e+06 2.38195e+07)
(5.55679e+07 315808 2.79948e+07 9.98578e+07 3.30353e+06 2.48699e+07)
(9.96438e+07 160301 4.93001e+06 1.06515e+08 3.17369e+06 2.02346e+06)
(1.16812e+08 88763.7 1.04248e+06 1.14629e+08 3.67151e+06 1.1511e+07)
(1.18698e+08 21512 149354 1.15476e+08 3.7805e+06 1.26083e+07)
(1.18906e+08 2797.41 28101.5 1.15541e+08 3.79991e+06 1.26514e+07)
(1.18925e+08 552.575 13614.9 1.15544e+08 3.8013e+06 1.26373e+07)
(1.18928e+08 -1006.9 10653.5 1.15547e+08 3.82484e+06 1.26336e+07)
(1.18934e+08 -1043.82 7503.38 1.15557e+08 3.79433e+06 1.26428e+07)
(1.18931e+08 807.622 5108.16 1.15551e+08 3.79802e+06 1.26394e+07)
(1.18936e+08 -119.073 4568.26 1.15562e+08 3.82004e+06 1.26408e+07)
(1.18933e+08 -991.653 2915.46 1.15554e+08 3.7968e+06 1.26426e+07)
(1.18943e+08 754.592 -2315.54 1.15571e+08 3.80044e+06 1.26536e+07)
(1.18946e+08 507.15 1282.4 1.15577e+08 3.82231e+06 1.26565e+07)
(1.18935e+08 -1136.36 4780.64 1.15556e+08 3.79722e+06 1.2646e+07)
(1.18935e+08 567.298 -120.704 1.15557e+08 3.79391e+06 1.26454e+07)
(1.18937e+08 490.204 -700.363 1.15561e+08 3.81992e+06 1.2643e+07)
(1.18935e+08 -1058.62 -377.198 1.15555e+08 3.79652e+06 1.26438e+07)
(1.18936e+08 -657.633 -1186 1.15559e+08 3.79428e+06 1.26459e+07)
(1.1894e+08 -270.741 -5216.29 1.15566e+08 3.79949e+06 1.26507e+07)
(1.18948e+08 -651.622 -6167.27 1.15578e+08 3.79286e+06 1.26623e+07)
(1.18951e+08 1260.39 -1274.7 1.15583e+08 3.77518e+06 1.26675e+07)
(1.18929e+08 1137.59 -1755.12 1.15546e+08 3.8009e+06 1.2638e+07)
(1.18933e+08 423.977 -7312.68 1.15556e+08 3.79485e+06 1.26419e+07)
(1.18931e+08 1874.53 -14649.6 1.15554e+08 3.8235e+06 1.26367e+07)
(1.18934e+08 -860.294 -16705.4 1.1556e+08 3.82762e+06 1.26459e+07)
(1.18916e+08 -4688.26 -22725.7 1.15565e+08 3.79535e+06 1.26609e+07)
(1.18704e+08 -20764.4 -145908 1.15485e+08 3.78285e+06 1.26198e+07)
(1.16814e+08 -88147.8 -1.04335e+06 1.14629e+08 3.67203e+06 1.15171e+07)
(9.96544e+07 -160093 -4.93226e+06 1.06524e+08 3.17317e+06 2.04545e+06)
(5.55669e+07 -316460 -2.79935e+07 9.98529e+07 3.3083e+06 2.48644e+07)
(5.58864e+07 190434 2.82658e+07 1.01559e+08 2.07302e+06 2.54974e+07)
(1.00238e+08 105415 5.02123e+06 1.08332e+08 1.96984e+06 2.43676e+06)
(1.17615e+08 62914 1.07597e+06 1.16663e+08 2.29249e+06 1.20584e+07)
(1.19539e+08 15858.6 156736 1.1756e+08 2.38656e+06 1.31767e+07)
(1.1975e+08 2214.55 28495.9 1.17627e+08 2.40128e+06 1.321e+07)
(1.19778e+08 459.61 13599.3 1.17637e+08 2.40188e+06 1.32105e+07)
(1.19778e+08 -662.027 10140.5 1.17632e+08 2.40416e+06 1.32056e+07)
(1.19785e+08 -603.015 7427.73 1.17645e+08 2.398e+06 1.32125e+07)
(1.19784e+08 462.077 5363.66 1.17642e+08 2.39998e+06 1.32116e+07)
(1.19788e+08 -91.6614 4551.39 1.17645e+08 2.40194e+06 1.3223e+07)
(1.19785e+08 -181.391 -1062.83 1.17644e+08 2.40047e+06 1.3215e+07)
(1.19794e+08 1205.7 1287 1.17657e+08 2.40176e+06 1.32257e+07)
(1.19785e+08 -73.2148 5108.3 1.17642e+08 2.42517e+06 1.32123e+07)
(1.19786e+08 -1646.78 1068.06 1.17645e+08 2.40001e+06 1.32164e+07)
(1.19785e+08 235.883 1.4771 1.17642e+08 2.39761e+06 1.32146e+07)
(1.19789e+08 511.138 -498.008 1.17645e+08 2.40177e+06 1.32239e+07)
(1.19785e+08 -640.275 -688.283 1.17644e+08 2.39933e+06 1.3214e+07)
(1.19787e+08 -543.032 -4861.04 1.17646e+08 2.39778e+06 1.32158e+07)
(1.19804e+08 470.799 -1828.28 1.17669e+08 2.3832e+06 1.32461e+07)
(1.19787e+08 892.286 -2932.76 1.17648e+08 2.41968e+06 1.32166e+07)
(1.19795e+08 259.48 -4166.65 1.17664e+08 2.42174e+06 1.32241e+07)
(1.19783e+08 -412.441 -1284.01 1.17639e+08 2.40256e+06 1.32128e+07)
(1.19784e+08 280.155 -7382.47 1.17644e+08 2.3986e+06 1.32124e+07)
(1.1978e+08 1869.93 -10596.8 1.17635e+08 2.40308e+06 1.32084e+07)
(1.19775e+08 170.504 -13211.4 1.17631e+08 2.42813e+06 1.32066e+07)
(1.19755e+08 -4284.62 -31423.7 1.17638e+08 2.42104e+06 1.32162e+07)
(1.19552e+08 -16407.3 -156767 1.17578e+08 2.36812e+06 1.31977e+07)
(1.17617e+08 -62367 -1.07287e+06 1.16664e+08 2.29204e+06 1.20651e+07)
(1.00239e+08 -104977 -5.02262e+06 1.08333e+08 1.96881e+06 2.4383e+06)
(5.5886e+07 -190862 -2.82655e+07 1.01557e+08 2.07653e+06 2.54943e+07)
(5.60912e+07 111523 2.84272e+07 1.02628e+08 1.30044e+06 2.58874e+07)
(1.0061e+08 67062.4 5.08079e+06 1.09454e+08 1.22759e+06 2.69423e+06)
(1.18123e+08 43585.8 1.1e+06 1.17949e+08 1.44157e+06 1.24057e+07)
(1.2007e+08 11372 162211 1.18876e+08 1.50797e+06 1.3536e+07)
(1.2029e+08 1678.85 29747.6 1.18948e+08 1.51937e+06 1.35803e+07)
(1.20316e+08 514.565 13716.1 1.18957e+08 1.5191e+06 1.35718e+07)
(1.20318e+08 -395.168 9811.42 1.18956e+08 1.52083e+06 1.35702e+07)
(1.20322e+08 -380.483 7175.71 1.18963e+08 1.51705e+06 1.35725e+07)
(1.20321e+08 139.99 5397.67 1.18961e+08 1.51807e+06 1.35724e+07)
(1.20326e+08 -79.6743 4463.07 1.18964e+08 1.5202e+06 1.35829e+07)
(1.20323e+08 669.222 2411.22 1.18963e+08 1.51871e+06 1.35765e+07)
(1.20323e+08 708.111 1542.23 1.18962e+08 1.54055e+06 1.35754e+07)
(1.2032e+08 -684.192 1643.59 1.18955e+08 1.5227e+06 1.35735e+07)
(1.20324e+08 -1485.55 721.653 1.18964e+08 1.51858e+06 1.35768e+07)
(1.20328e+08 45.7863 -78.1787 1.1897e+08 1.49863e+06 1.35837e+07)
(1.20322e+08 834.438 -320.492 1.18961e+08 1.51961e+06 1.3574e+07)
(1.20323e+08 -465.493 -793.464 1.18963e+08 1.51809e+06 1.35743e+07)
(1.20322e+08 646.353 -5119.95 1.18961e+08 1.51677e+06 1.35749e+07)
(1.20332e+08 -47.2036 -1787.8 1.18979e+08 1.54039e+06 1.35856e+07)
(1.20327e+08 105.033 740.208 1.18966e+08 1.50062e+06 1.35838e+07)
(1.2032e+08 661.128 -3826.07 1.18957e+08 1.54106e+06 1.35709e+07)
(1.20322e+08 -769.338 -4630.48 1.1896e+08 1.51954e+06 1.3575e+07)
(1.20322e+08 196.131 -7268.74 1.18963e+08 1.51758e+06 1.35731e+07)
(1.20319e+08 1055.52 -10074.1 1.18957e+08 1.52032e+06 1.35718e+07)
(1.20312e+08 -6.87621 -13302.6 1.18948e+08 1.52344e+06 1.357e+07)
(1.20288e+08 -2116.07 -32697.3 1.18947e+08 1.51913e+06 1.35752e+07)
(1.20078e+08 -11959.4 -162333 1.18887e+08 1.52844e+06 1.35491e+07)
(1.18125e+08 -44004.8 -1.09667e+06 1.1795e+08 1.4405e+06 1.24115e+07)
(1.00609e+08 -66363.7 -5.08202e+06 1.09454e+08 1.22708e+06 2.69331e+06)
(5.60913e+07 -111760 -2.84277e+07 1.0263e+08 1.30304e+06 2.5886e+07)
(5.62271e+07 64522 2.85209e+07 1.03309e+08 791509 2.61394e+07)
(1.00843e+08 42023.8 5.11798e+06 1.10145e+08 763311 2.85706e+06)
(1.18441e+08 29460.3 1.11681e+06 1.18753e+08 901951 1.26251e+07)
(1.20403e+08 7617.67 166114 1.19702e+08 948189 1.37642e+07)
(1.20628e+08 1194.03 29753.4 1.19782e+08 937714 1.38063e+07)
(1.20655e+08 857.044 13967.8 1.19787e+08 955962 1.38012e+07)
(1.20658e+08 -192.222 9603.74 1.19787e+08 956838 1.38008e+07)
(1.2066e+08 -237.711 6977.88 1.19791e+08 955055 1.38012e+07)
(1.2066e+08 40.0839 5181.34 1.1979e+08 955678 1.38011e+07)
(1.2066e+08 -95.7034 4260.15 1.1979e+08 956800 1.38008e+07)
(1.20662e+08 215.114 2688.9 1.19791e+08 955943 1.38053e+07)
(1.20658e+08 460.261 1820.23 1.19782e+08 958185 1.38026e+07)
(1.20661e+08 -168.848 1587.86 1.19788e+08 958830 1.38051e+07)
(1.20662e+08 -605.49 -3093.98 1.19793e+08 956314 1.38058e+07)
(1.20671e+08 62.4723 -80.9056 1.19807e+08 954901 1.38161e+07)
(1.20662e+08 260.924 3320.72 1.19792e+08 957208 1.38037e+07)
(1.20661e+08 -761.491 -907.739 1.19792e+08 956119 1.38036e+07)
(1.20666e+08 1034.16 -1662.98 1.19798e+08 937274 1.38111e+07)
(1.20661e+08 694.388 -5158.39 1.1979e+08 978651 1.38029e+07)
(1.2067e+08 -1075.77 -2526.62 1.19805e+08 956314 1.38175e+07)
(1.20662e+08 21.1327 -224.308 1.1979e+08 941559 1.38087e+07)
(1.2066e+08 27.1804 -4773.03 1.19789e+08 955993 1.3804e+07)
(1.2066e+08 195.793 -7143 1.19791e+08 955512 1.38022e+07)
(1.20659e+08 556.336 -9690.52 1.19788e+08 956661 1.38022e+07)
(1.20654e+08 -152.815 -13313.8 1.19783e+08 958440 1.38024e+07)
(1.20626e+08 -1540.82 -30112.9 1.19777e+08 955734 1.38057e+07)
(1.20406e+08 -8642.57 -166668 1.19701e+08 950696 1.37726e+07)
(1.18442e+08 -29676.6 -1.11688e+06 1.18751e+08 900624 1.26291e+07)
(1.00842e+08 -40690.2 -5.11899e+06 1.10145e+08 763178 2.85604e+06)
(5.62235e+07 -64366.3 -2.85223e+07 1.03302e+08 812989 2.61301e+07)
(5.63143e+07 37002 2.85723e+07 1.03736e+08 498963 2.62958e+07)
(1.00987e+08 24879.3 5.14565e+06 1.10567e+08 468503 2.95701e+06)
(1.18639e+08 19282.7 1.12822e+06 1.19251e+08 556194 1.2761e+07)
(1.20611e+08 5671.97 165621 1.20217e+08 587445 1.39071e+07)
(1.20843e+08 781.507 30118.1 1.20307e+08 592589 1.39545e+07)
(1.20865e+08 198.745 17480.1 1.20302e+08 592130 1.39438e+07)
(1.20869e+08 -24.3607 9503.98 1.20304e+08 592914 1.39439e+07)
(1.20871e+08 -133.648 6856.29 1.20306e+08 592157 1.3944e+07)
(1.20871e+08 84.2755 5145.4 1.20306e+08 592616 1.39439e+07)
(1.20871e+08 -145.846 4167.81 1.20306e+08 593855 1.39443e+07)
(1.20872e+08 -423.327 2799.13 1.20306e+08 592255 1.39477e+07)
(1.20876e+08 380.406 2027.09 1.2031e+08 576591 1.39545e+07)
(1.20873e+08 406.045 1510.35 1.20306e+08 594345 1.39492e+07)
(1.20873e+08 79.408 112.759 1.20308e+08 593200 1.39486e+07)
(1.20873e+08 73.023 17.175 1.20307e+08 610842 1.39483e+07)
(1.20872e+08 -217.345 86.0144 1.20307e+08 593981 1.39479e+07)
(1.20873e+08 -119.779 -4523.58 1.20308e+08 593360 1.39475e+07)
(1.20881e+08 546.369 -1490.17 1.20323e+08 592685 1.39585e+07)
(1.2087e+08 502.531 1754.79 1.20301e+08 596668 1.39457e+07)
(1.20873e+08 -242.808 -5986.21 1.20307e+08 611425 1.39499e+07)
(1.2088e+08 -663.211 -3603.58 1.2032e+08 595392 1.39595e+07)
(1.2087e+08 -343.941 -1481.66 1.20303e+08 592227 1.39463e+07)
(1.20871e+08 275.504 -7019.86 1.20307e+08 592709 1.39454e+07)
(1.2087e+08 248.088 -9526.28 1.20305e+08 592761 1.39455e+07)
(1.20866e+08 -324.281 -13408.5 1.20302e+08 593477 1.39463e+07)
(1.20835e+08 -1263.82 -34032.2 1.20291e+08 591443 1.39481e+07)
(1.20622e+08 -6200.48 -169785 1.2023e+08 571497 1.39263e+07)
(1.18645e+08 -19293.2 -1.12494e+06 1.19258e+08 537448 1.27723e+07)
(1.00987e+08 -24002.6 -5.14134e+06 1.10567e+08 468415 2.95774e+06)
(5.63077e+07 -36603.6 -2.85767e+07 1.0372e+08 499016 2.62813e+07)
(5.63601e+07 20727.8 2.86068e+07 1.03973e+08 315237 2.63741e+07)
(1.01075e+08 13794.8 5.15355e+06 1.1082e+08 276610 3.01872e+06)
(1.18758e+08 11949.3 1.13563e+06 1.19551e+08 329590 1.28432e+07)
(1.20737e+08 4056.24 171239 1.20528e+08 349607 1.39937e+07)
(1.20967e+08 230.966 30803.6 1.20609e+08 370074 1.40412e+07)
(1.20992e+08 -196.542 14000.4 1.20613e+08 351830 1.40293e+07)
(1.20997e+08 192.614 9500 1.20618e+08 352669 1.40304e+07)
(1.20998e+08 -62.8373 6781.07 1.20619e+08 352368 1.40303e+07)
(1.20998e+08 16.2777 5208.08 1.20619e+08 352704 1.40302e+07)
(1.21002e+08 -303.218 4149.37 1.20622e+08 353669 1.4039e+07)
(1.20999e+08 109.788 -690.916 1.20617e+08 352002 1.40328e+07)
(1.21009e+08 452.693 2231.64 1.20634e+08 353751 1.40469e+07)
(1.21001e+08 -82.3947 4925.63 1.20621e+08 353815 1.40358e+07)
(1.21001e+08 -529.366 41.642 1.20621e+08 353189 1.40348e+07)
(1.21002e+08 -44.8101 139.577 1.20621e+08 335981 1.40381e+07)
(1.21004e+08 438.409 166.907 1.20623e+08 353478 1.40429e+07)
(1.21004e+08 660.332 -1166.81 1.20624e+08 353599 1.4042e+07)
(1.21002e+08 342.396 -1333.88 1.20624e+08 371456 1.40361e+07)
(1.21e+08 -844.726 -1643.27 1.20617e+08 355326 1.4035e+07)
(1.21002e+08 510.963 -2588.26 1.20621e+08 336258 1.40394e+07)
(1.21003e+08 -380.01 -3663.81 1.20623e+08 373056 1.40387e+07)
(1.21003e+08 -844.592 -5034.11 1.20624e+08 334631 1.40392e+07)
(1.20999e+08 561.716 -6970.37 1.2062e+08 353086 1.40328e+07)
(1.20998e+08 60.0822 -9528.09 1.20618e+08 352289 1.40318e+07)
(1.20994e+08 -638.6 -13502.9 1.20617e+08 352719 1.40328e+07)
(1.20968e+08 111.563 -34260 1.20614e+08 333809 1.40408e+07)
(1.20748e+08 -3011.66 -175524 1.20544e+08 368675 1.40108e+07)
(1.18769e+08 -12890.2 -1.13247e+06 1.19569e+08 328945 1.28591e+07)
(1.01075e+08 -14227.1 -5.15094e+06 1.10819e+08 275922 3.01992e+06)
(5.63589e+07 -20663.4 -2.86055e+07 1.03973e+08 295861 2.63704e+07)
(5.63894e+07 10680.6 2.8624e+07 1.04115e+08 136041 2.64259e+07)
(1.01124e+08 7828.3 5.1607e+06 1.10961e+08 145008 3.05256e+06)
(1.18826e+08 6421.41 1.14007e+06 1.19721e+08 173234 1.28892e+07)
(1.20811e+08 1420.02 173189 1.20707e+08 184180 1.40509e+07)
(1.21034e+08 -308.17 30244 1.20781e+08 167719 1.4081e+07)
(1.21069e+08 685.915 14180.6 1.208e+08 167828 1.40841e+07)
(1.2107e+08 586.401 9526.97 1.20796e+08 185778 1.4079e+07)
(1.2107e+08 -16.0448 6736.89 1.20797e+08 185735 1.40788e+07)
(1.21071e+08 -64.3239 5051.45 1.20797e+08 185961 1.40787e+07)
(1.21071e+08 -649.918 3892.48 1.20796e+08 185829 1.40792e+07)
(1.21076e+08 708.74 2930.11 1.20803e+08 168074 1.40871e+07)
(1.21075e+08 740.046 2432.24 1.20801e+08 204640 1.40875e+07)
(1.21073e+08 -606.96 1449.4 1.20798e+08 186975 1.40844e+07)
(1.21073e+08 -101.128 -3469.03 1.20799e+08 186390 1.40835e+07)
(1.2108e+08 -201.462 -45.95 1.20809e+08 186467 1.40934e+07)
(1.21072e+08 10.1675 3591.04 1.20796e+08 185200 1.4082e+07)
(1.21072e+08 466.708 -895.42 1.20798e+08 186381 1.40819e+07)
(1.21071e+08 172.426 -1050.91 1.20793e+08 187297 1.40808e+07)
(1.21077e+08 -92.5009 -5040.23 1.208e+08 186876 1.40924e+07)
(1.21081e+08 254.538 -2491.52 1.20811e+08 186971 1.40946e+07)
(1.21076e+08 -272.435 -3883.26 1.20797e+08 187911 1.40926e+07)
(1.2108e+08 -418.779 -5184.51 1.20811e+08 185427 1.40929e+07)
(1.21075e+08 -22.9708 -3806.65 1.20801e+08 186220 1.40897e+07)
(1.21069e+08 39.8085 -9611.17 1.20795e+08 185001 1.40797e+07)
(1.21067e+08 18.8501 -16979.2 1.20795e+08 185751 1.40812e+07)
(1.21045e+08 564.308 -30838.2 1.208e+08 184873 1.40948e+07)
(1.2081e+08 -1231.11 -169556 1.20703e+08 203308 1.40489e+07)
(1.1883e+08 -7645.27 -1.1406e+06 1.19726e+08 191087 1.28961e+07)
(1.01122e+08 -7998.84 -5.16151e+06 1.10959e+08 143499 3.05156e+06)
(5.63877e+07 -10654.1 -2.86251e+07 1.04114e+08 156210 2.64201e+07)
(5.64071e+07 3313.97 2.86286e+07 1.04193e+08 48956.7 2.64578e+07)
(1.01146e+08 2130.34 5.16903e+06 1.11024e+08 44905.8 3.06645e+06)
(1.18855e+08 1940.29 1.14198e+06 1.19797e+08 53868.2 1.29095e+07)
(1.20839e+08 132.901 169445 1.20783e+08 56791.8 1.40638e+07)
(1.21078e+08 242.422 26913.7 1.20883e+08 40556.5 1.41161e+07)
(1.21108e+08 481.561 17661.2 1.2089e+08 57799.8 1.41123e+07)
(1.21102e+08 -18.3537 12985.4 1.20876e+08 57603.5 1.41006e+07)
(1.21103e+08 4.35198 6727.7 1.20877e+08 57671.1 1.41004e+07)
(1.21103e+08 -24.6518 4964.92 1.20877e+08 57814.8 1.41004e+07)
(1.21104e+08 -21.0483 366.351 1.20877e+08 57629.9 1.41007e+07)
(1.21114e+08 213.868 3057.36 1.20893e+08 57921.5 1.41148e+07)
(1.21104e+08 -31.2119 6036.96 1.20872e+08 58527.4 1.41042e+07)
(1.21109e+08 -160.953 1414.62 1.20881e+08 58003.6 1.41139e+07)
(1.21106e+08 446.484 -159.191 1.20879e+08 58108.1 1.4105e+07)
(1.21106e+08 -323.23 -219.624 1.20878e+08 75628.5 1.41071e+07)
(1.21103e+08 -436.19 239.038 1.20874e+08 56891 1.4102e+07)
(1.21109e+08 374.528 -656.494 1.20881e+08 58199.5 1.41115e+07)
(1.21104e+08 80.7525 -1186.75 1.20875e+08 58391.9 1.41039e+07)
(1.21105e+08 628.751 -1682.45 1.20878e+08 57402.6 1.41048e+07)
(1.21108e+08 104.228 -2368.01 1.20882e+08 76321.9 1.41092e+07)
(1.21105e+08 -330.414 -3887.42 1.20876e+08 58515.6 1.41064e+07)
(1.21106e+08 -184.094 -5293.71 1.20878e+08 75170.8 1.41062e+07)
(1.21104e+08 -604.741 -6958.22 1.20878e+08 57496.6 1.41031e+07)
(1.21101e+08 53.6123 -9484.05 1.20873e+08 56558.5 1.41004e+07)
(1.211e+08 669.978 -13455 1.20876e+08 57557 1.41031e+07)
(1.2107e+08 118.785 -30819 1.20867e+08 75014.1 1.4108e+07)
(1.20838e+08 -746.701 -173471 1.20776e+08 57827.2 1.40663e+07)
(1.18856e+08 -3006.35 -1.14314e+06 1.19795e+08 54648 1.29117e+07)
(1.01143e+08 -2654.6 -5.16466e+06 1.11019e+08 43391.8 3.06456e+06)