/*--------------------------------*- C++ -*----------------------------------*\
| =========                 |                                                 |
| \\      /  F ield         | OpenFOAM: The Open Source CFD Toolbox           |
|  \\    /   O peration     | Version:  2106                                  |
|   \\  /    A nd           | Website:  www.openfoam.com                      |
|    \\/     M anipulation  |                                                 |
\*---------------------------------------------------------------------------*/
FoamFile
{
    version     2.0;
    format      ascii;
    arch        "LSB;label=32;scalar=64";
    class       volTensorField;
    location    "349";
    object      testEpsilon;
}
// * * * * * * * * * * * * * * * * * * * * * * * * * * * * * * * * * * * * * //

dimensions      [0 0 0 0 0 0 0];

internalField   nonuniform List<tensor> 
9000
(
(-0.0855967 0.00384247 -0.1055 -0.00437139 -0.147142 -0.257575 0.201865 0.380425 -0.0252969)
(-0.016778 0.0036853 -0.00285834 -0.00261033 -0.15649 -0.270425 0.021652 0.400708 -0.0697131)
(-0.00193045 0.00248308 0.00204242 -0.00181148 -0.166402 -0.287116 0.00310946 0.425456 -0.0594762)
(-0.000321963 0.000468271 0.000325645 -0.00036684 -0.168018 -0.290899 0.000587498 0.43102 -0.0573452)
(-5.59055e-05 -3.74518e-05 -2.72316e-05 2.17816e-05 -0.168101 -0.291011 0.000111175 0.431187 -0.057356)
(-4.34404e-06 -2.17411e-05 -1.39087e-05 1.79911e-05 -0.167924 -0.290247 4.91816e-05 0.430006 -0.0576171)
(-1.55304e-06 -8.00573e-07 -1.16796e-08 8.80395e-07 -0.168049 -0.290806 4.7373e-05 0.430893 -0.0575004)
(-9.87953e-08 -3.03756e-05 -1.83497e-05 1.86992e-05 -0.167918 -0.290238 2.9999e-05 0.430001 -0.0576157)
(-1.01575e-06 3.97656e-05 2.53225e-05 -2.69268e-05 -0.167918 -0.290234 3.12979e-05 0.429994 -0.0576181)
(-6.16644e-06 1.75319e-05 8.85771e-06 -4.32436e-06 -0.168089 -0.290915 -2.93054e-05 0.431045 -0.0574062)
(2.49091e-06 -6.20718e-05 -4.25652e-05 4.99496e-05 -0.167974 -0.290484 -5.4333e-05 0.430383 -0.0575259)
(7.3488e-06 1.75308e-05 1.3652e-05 -1.8582e-05 -0.1678 -0.289793 6.1463e-05 0.429322 -0.0577477)
(-4.28135e-06 5.78228e-05 3.94759e-05 -4.73104e-05 -0.16808 -0.290868 6.98656e-05 0.430979 -0.0574298)
(-3.64761e-06 -1.12107e-05 -1.00099e-05 1.29287e-05 -0.168096 -0.29087 -4.89173e-05 0.430995 -0.0574208)
(3.29678e-06 7.90852e-06 5.41371e-06 -5.90682e-06 -0.16799 -0.29054 2.90179e-06 0.430461 -0.0575006)
(-2.95338e-06 1.19528e-05 9.91289e-06 -1.44468e-05 -0.1681 -0.290948 4.95708e-05 0.431093 -0.0573884)
(-1.9982e-06 -2.00952e-05 -1.57028e-05 2.05563e-05 -0.168096 -0.290869 -5.85923e-05 0.430994 -0.0574233)
(2.76498e-07 9.27575e-07 1.16969e-06 4.96968e-07 -0.167989 -0.290537 -5.52432e-06 0.430457 -0.0575031)
(-2.00871e-06 -4.4832e-05 -2.82442e-05 3.14774e-05 -0.168081 -0.290883 -1.80054e-05 0.431 -0.0574214)
(4.70862e-06 -4.11166e-05 -2.65683e-05 2.83748e-05 -0.167803 -0.289814 -2.21473e-05 0.42935 -0.0577315)
(2.7688e-06 5.92591e-05 4.01558e-05 -4.76695e-05 -0.167903 -0.290182 4.36038e-05 0.429924 -0.0576487)
(-5.69443e-06 4.54654e-05 2.90317e-05 -3.24886e-05 -0.168088 -0.290899 -1.07327e-05 0.431017 -0.0574206)
(-3.5529e-06 -3.51122e-05 -2.2296e-05 2.32679e-05 -0.16809 -0.290923 -3.76373e-05 0.431056 -0.0574083)
(-3.2125e-08 -7.55519e-06 -4.48262e-06 5.83646e-06 -0.167927 -0.290263 -4.51208e-05 0.430031 -0.0576062)
(-8.06729e-06 1.1937e-05 6.66267e-06 -8.61408e-06 -0.168076 -0.290859 -5.3305e-05 0.430961 -0.0574391)
(-5.46058e-05 -2.23676e-05 -1.35089e-05 2.60998e-05 -0.167937 -0.290358 -0.000174371 0.430176 -0.0575462)
(-0.000315522 -0.000440381 -0.000307608 0.000348632 -0.167891 -0.290424 -0.000582919 0.430299 -0.0574815)
(-0.00193097 -0.00245613 -0.0020232 0.00178496 -0.166399 -0.287037 -0.00305265 0.425354 -0.0594996)
(-0.016781 -0.0036774 0.0028635 0.00260434 -0.156489 -0.270421 -0.021653 0.400704 -0.0697119)
(-0.0855966 -0.00384439 0.105502 0.00437323 -0.147142 -0.257564 -0.20187 0.380407 -0.0252999)
(-0.0724116 0.00189456 -0.103217 -0.00191893 -0.0980905 -0.0790989 0.196217 0.215511 -0.128954)
(-0.0164021 0.00216202 -0.00426311 -0.000797909 -0.103207 -0.0826268 0.0203402 0.226162 -0.174995)
(-0.00180351 0.00153378 0.000978193 -0.000668622 -0.109245 -0.0876548 0.00212522 0.240163 -0.171309)
(-0.000207315 0.000316579 0.000119412 -0.000174635 -0.110415 -0.0888515 0.00034809 0.24368 -0.170624)
(-2.79149e-05 -1.64842e-05 1.54043e-06 3.96585e-06 -0.110438 -0.0888896 6.56416e-05 0.243784 -0.170669)
(-4.85581e-06 -1.57106e-05 -2.23708e-06 9.60502e-06 -0.110222 -0.0887081 6.34736e-05 0.243473 -0.170679)
(-2.27649e-06 7.63288e-07 1.33732e-06 5.61456e-07 -0.110389 -0.0888217 4.64128e-05 0.243612 -0.170689)
(-1.60416e-06 -9.56148e-06 6.07161e-06 6.30714e-06 -0.110199 -0.0887076 -1.58064e-05 0.243487 -0.170675)
(-8.29605e-07 1.50261e-05 -5.61717e-06 -1.10018e-05 -0.110201 -0.0887079 6.80497e-05 0.243477 -0.170678)
(-9.75202e-07 1.08054e-05 -2.00887e-06 3.55278e-06 -0.110414 -0.0888571 6.36316e-05 0.243674 -0.170687)
(-3.6062e-07 -1.96804e-05 9.43683e-06 2.63463e-05 -0.110318 -0.0887672 -3.42202e-05 0.243938 -0.170655)
(-1.13225e-07 4.55181e-07 -3.77874e-06 -1.21189e-05 -0.110104 -0.0886101 8.41081e-06 0.24372 -0.170633)
(-8.53475e-07 1.34597e-05 -8.53974e-06 -2.74826e-05 -0.110414 -0.088831 5.02712e-05 0.243619 -0.170688)
(-3.58612e-07 3.84374e-06 4.07058e-06 8.49153e-06 -0.11039 -0.0888286 -5.16417e-07 0.243342 -0.17067)
(1.38099e-07 8.6766e-06 -4.24762e-07 -1.10703e-06 -0.110334 -0.0887868 -3.02449e-07 0.243988 -0.170652)
(-4.61197e-07 -5.75442e-06 -2.73696e-06 -1.20982e-05 -0.110423 -0.088869 -1.40095e-06 0.243706 -0.170682)
(-1.12124e-07 -3.0298e-06 3.00506e-06 1.33674e-05 -0.110389 -0.0888288 -4.15895e-06 0.243342 -0.170672)
(-1.31154e-08 3.94949e-06 -1.00309e-06 3.57595e-06 -0.110334 -0.0887853 -3.49852e-06 0.243984 -0.170653)
(-6.37576e-07 -1.83172e-05 5.51149e-06 1.39467e-05 -0.110404 -0.0888449 -5.13746e-05 0.243642 -0.17069)
(-7.11114e-07 -1.59093e-05 6.05531e-06 1.20702e-05 -0.110104 -0.088619 -5.73004e-05 0.243757 -0.170643)
(-7.45274e-07 1.64826e-05 -1.01147e-05 -2.47053e-05 -0.110183 -0.0886856 2.43608e-05 0.243425 -0.17067)
(-9.44515e-07 1.89305e-05 -5.99937e-06 -1.51108e-05 -0.110424 -0.0888467 2.13767e-05 0.243644 -0.170694)
(-1.19092e-06 -1.14641e-05 6.42957e-06 9.13111e-06 -0.110415 -0.0888604 -7.69113e-05 0.243686 -0.17069)
(-1.70499e-06 -6.39499e-06 -1.28146e-06 2.81201e-06 -0.110214 -0.0887205 -4.07357e-05 0.243501 -0.170675)
(-5.49252e-06 1.02466e-05 2.09264e-06 -3.35806e-06 -0.110414 -0.0888348 -5.77396e-05 0.243608 -0.170694)
(-2.83625e-05 -1.83116e-06 7.33391e-06 2.12859e-05 -0.110232 -0.0887461 -0.000110579 0.243614 -0.170649)
(-0.000207078 -0.000312949 -0.00012526 0.000165648 -0.110305 -0.088745 -0.000301973 0.2439 -0.170591)
(-0.00180359 -0.00152611 -0.000981397 0.000651067 -0.10921 -0.0876126 -0.00212484 0.239801 -0.171307)
(-0.0164023 -0.00215385 0.00426278 0.000796515 -0.103206 -0.0826245 -0.0203442 0.226156 -0.174992)
(-0.0724108 -0.00189706 0.103219 0.00192148 -0.0980948 -0.0790992 -0.19622 0.215492 -0.128954)
(-0.0763138 -0.00107827 -0.104082 0.00342254 -0.0575655 -0.00938532 0.197615 0.125764 -0.153372)
(-0.016528 0.00145431 -0.00456951 0.000287399 -0.0602242 -0.0111311 0.020326 0.132467 -0.201957)
(-0.00180579 0.00104158 0.00079747 -2.83977e-06 -0.0633739 -0.0116324 0.00195563 0.141111 -0.199919)
(-0.000187446 0.000229781 7.86828e-05 -3.3309e-05 -0.0641117 -0.0117981 0.000267524 0.143634 -0.199616)
(-1.90576e-05 1.19783e-06 1.45641e-06 -2.63906e-06 -0.0641141 -0.011809 0.00011253 0.143731 -0.199675)
(-5.02492e-06 -1.2039e-05 -3.24464e-07 2.28012e-06 -0.0640101 -0.0118203 6.8221e-05 0.143966 -0.199632)
(-2.21262e-06 3.82061e-06 8.00438e-08 8.64136e-07 -0.0640867 -0.0117973 4.5934e-05 0.143604 -0.199679)
(-2.41144e-06 7.24773e-06 4.4021e-06 1.76242e-06 -0.0640045 -0.0118372 3.49116e-05 0.144183 -0.19965)
(-1.56662e-06 -3.28952e-06 -4.57116e-06 -2.49505e-06 -0.0640141 -0.0118299 1.42473e-05 0.144164 -0.199651)
(1.30316e-06 -5.84575e-06 -3.00416e-06 3.59051e-07 -0.0640887 -0.0118001 1.54264e-05 0.143651 -0.199685)
(-6.43431e-07 -9.81701e-08 6.83171e-06 6.31353e-06 -0.0640787 -0.0118172 2.6228e-05 0.143622 -0.199669)
(-3.41698e-06 -1.66258e-06 8.98154e-07 -3.70781e-06 -0.0639942 -0.0118477 4.53365e-06 0.14415 -0.199625)
(-1.59256e-07 5.77153e-07 -4.21442e-06 -7.2625e-06 -0.0640698 -0.0117895 -3.95871e-05 0.143426 -0.199638)
(1.62751e-06 4.88836e-06 -1.16883e-06 2.53685e-06 -0.0640206 -0.0118033 1.26122e-06 0.143661 -0.199666)
(-8.21166e-07 1.28924e-06 -2.66742e-06 -2.00724e-07 -0.064085 -0.011818 2.76883e-05 0.143655 -0.199672)
(-5.85062e-08 8.23343e-07 1.51733e-06 -2.724e-06 -0.0640941 -0.0118044 -3.44323e-05 0.143676 -0.199683)
(1.13663e-06 -2.19345e-06 1.0401e-06 3.13449e-06 -0.0640209 -0.0118043 1.11015e-06 0.143662 -0.199668)
(3.92359e-07 -1.93158e-06 -2.04398e-06 2.45613e-06 -0.064085 -0.0118167 2.77925e-05 0.143651 -0.199673)
(-3.09846e-07 1.05241e-06 5.00542e-06 3.56634e-06 -0.0640823 -0.0117943 3.98945e-06 0.143626 -0.199684)
(-3.02178e-06 2.91484e-06 5.27449e-06 2.66534e-06 -0.0639938 -0.0118509 -2.49203e-06 0.144155 -0.199635)
(-2.66741e-06 -4.65554e-06 -5.39302e-06 -6.21064e-06 -0.0639946 -0.0118322 -3.22736e-05 0.144165 -0.199641)
(1.07286e-06 -7.61803e-07 -5.91623e-06 -4.37826e-06 -0.0640791 -0.0117888 -3.50143e-05 0.143439 -0.199668)
(3.16698e-08 6.80142e-06 2.95877e-06 3.13921e-06 -0.0640881 -0.0118017 -2.39535e-05 0.143665 -0.199688)
(-2.52996e-06 -7.50228e-06 6.25565e-07 -5.31827e-07 -0.0640225 -0.0118355 -3.8731e-05 0.144176 -0.199652)
(-4.37252e-06 8.44199e-06 1.54128e-06 -5.59988e-07 -0.0640821 -0.0117857 -5.88121e-05 0.143411 -0.199662)
(-2.08047e-05 -5.3429e-07 4.46213e-06 9.23288e-06 -0.0640355 -0.011842 -9.82306e-05 0.144266 -0.199634)
(-0.000189566 -0.000236054 -8.09215e-05 3.10474e-05 -0.0640894 -0.0118105 -0.000304653 0.143573 -0.199598)
(-0.0018048 -0.00103637 -0.0007991 -1.82342e-06 -0.063301 -0.0116248 -0.00196632 0.141064 -0.199906)
(-0.0165269 -0.00145433 0.00456618 -0.000288399 -0.0602224 -0.0111301 -0.0203007 0.132463 -0.201953)
(-0.0763113 0.00107361 0.104081 -0.0034174 -0.0575753 -0.00938202 -0.197614 0.125736 -0.153372)
(-0.0818877 -0.0028223 -0.107697 0.00645224 -0.0351752 0.00544057 0.204475 0.0764155 -0.154261)
(-0.0170872 0.00100035 -0.00471253 0.000758891 -0.0372394 0.00345693 0.0210133 0.0811106 -0.205368)
(-0.00186766 0.000756287 0.000844787 0.000233163 -0.0391149 0.00393212 0.00214667 0.087319 -0.203483)
(-0.000207274 0.000168531 8.40856e-05 3.243e-05 -0.039639 0.00401746 0.000302703 0.0889943 -0.203192)
(-2.07971e-05 3.82574e-06 -2.89254e-06 -4.91864e-06 -0.0396485 0.00401797 8.74261e-05 0.0890856 -0.203257)
(-4.15517e-06 -1.02288e-05 1.15503e-07 -2.76724e-06 -0.0395904 0.00398852 6.9017e-05 0.0889122 -0.203221)
(-2.38003e-06 1.87914e-06 -2.03706e-06 8.8791e-07 -0.0396151 0.00401584 6.4997e-05 0.088862 -0.203248)
(-2.27599e-06 4.96562e-06 -4.49814e-07 -1.94191e-06 -0.0396326 0.00398615 3.30306e-05 0.089062 -0.20327)
(-1.11028e-06 -1.80475e-06 1.79477e-06 2.81741e-06 -0.0396272 0.00399121 1.69861e-05 0.0889108 -0.203232)
(7.86513e-07 -2.11452e-06 5.32066e-07 2.9342e-06 -0.0396244 0.0040167 1.69962e-05 0.0890314 -0.203265)
(-1.17399e-06 -7.84136e-07 -9.15636e-08 -3.39271e-06 -0.0396204 0.00401113 2.39589e-05 0.0890122 -0.20326)
(-2.82843e-06 2.23227e-06 1.759e-06 -6.62088e-07 -0.039626 0.00397943 -1.52257e-05 0.0890294 -0.203237)
(3.95457e-07 8.18161e-06 3.47843e-07 3.89079e-06 -0.0395796 0.00400153 -9.82231e-06 0.0890506 -0.203244)
(1.05374e-06 7.90323e-07 -1.63312e-06 1.06787e-06 -0.0396002 0.00399321 2.13537e-05 0.089386 -0.20327)
(-9.1407e-07 -6.01287e-06 -6.34513e-07 -9.35484e-07 -0.0396186 0.00401044 -6.83828e-07 0.0890428 -0.203263)
(2.05847e-07 7.08399e-06 2.51558e-09 1.23287e-06 -0.0396279 0.00401277 -6.02498e-06 0.0890558 -0.203266)
(9.239e-07 -1.22792e-06 5.29826e-07 -3.73369e-08 -0.0396015 0.00399306 1.41102e-06 0.0893855 -0.203272)
(7.32547e-08 -8.33518e-06 9.92973e-07 -4.96115e-08 -0.0396181 0.00401071 1.28887e-06 0.08904 -0.203263)
(-5.95732e-07 -7.35159e-08 -1.32351e-06 -2.97809e-06 -0.0396209 0.00401926 1.89023e-06 0.0890114 -0.203242)
(-2.66651e-06 1.63681e-06 -1.52802e-06 -3.18836e-06 -0.0396259 0.00398056 -5.38267e-06 0.0890445 -0.203263)
(-2.15399e-06 -5.66869e-07 2.30831e-06 2.98003e-06 -0.0396275 0.00398489 -4.9402e-05 0.0890432 -0.203245)
(9.25455e-07 2.13608e-07 9.93081e-08 2.86788e-06 -0.0395895 0.00401323 -3.37418e-05 0.0890266 -0.203236)
(-4.21631e-07 -1.42605e-07 -2.91248e-06 -2.6388e-06 -0.0396217 0.00401487 -5.77029e-06 0.0890489 -0.203269)
(-2.44483e-06 -5.1968e-06 1.93046e-06 -2.49727e-06 -0.0396309 0.00399168 -5.86657e-05 0.0889146 -0.203255)
(-3.53958e-06 7.63081e-06 8.01571e-07 1.77942e-06 -0.0395832 0.00401327 -5.96911e-05 0.0888689 -0.203213)
(-2.2041e-05 -3.27332e-06 2.37735e-06 3.06231e-06 -0.0396569 0.00398866 -7.47071e-05 0.0891155 -0.203252)
(-0.000209289 -0.00016605 -8.18295e-05 -2.95141e-05 -0.0396254 0.00401052 -0.000308279 0.0889511 -0.203182)
(-0.00186748 -0.000752714 -0.000845327 -0.000231933 -0.0390909 0.00391276 -0.00215981 0.0876236 -0.203457)
(-0.0170854 -0.0010087 0.00471134 -0.000761318 -0.037238 0.00345714 -0.0210186 0.0811086 -0.205365)
(-0.0818923 0.00281375 0.107695 -0.00644225 -0.0351662 0.00544597 -0.20447 0.0762578 -0.154246)
(-0.0860684 -0.00311379 -0.112122 0.00666956 -0.0220647 0.0048285 0.212899 0.0479666 -0.152255)
(-0.0177718 0.000666372 -0.0048712 0.000873857 -0.0235837 0.00285425 0.0219984 0.0507175 -0.20572)
(-0.00195109 0.000561658 0.000909575 0.000262795 -0.024938 0.00331542 0.0024233 0.0554913 -0.203758)
(-0.000235062 0.000123066 9.58535e-05 4.96158e-05 -0.0252937 0.00340301 0.000331792 0.0565434 -0.203428)
(-2.6097e-05 1.09149e-05 -4.33161e-06 2.20059e-07 -0.0252951 0.00340593 8.74964e-05 0.0565206 -0.203485)
(-3.86361e-06 -5.3613e-06 -7.50458e-07 -3.70045e-06 -0.0252516 0.00338828 4.72267e-05 0.0568298 -0.203514)
(-2.04755e-06 -4.61367e-06 -3.93517e-07 -9.30324e-07 -0.0252526 0.0033988 6.1017e-05 0.0564667 -0.20349)
(-2.02554e-06 4.84096e-06 -5.23915e-07 -3.82304e-07 -0.0252904 0.00340689 3.0456e-05 0.0566092 -0.203514)
(-5.91398e-07 -1.65487e-06 1.53881e-06 1.4162e-06 -0.0252639 0.00339858 1.97357e-05 0.0566223 -0.203503)
(6.11309e-08 -4.501e-06 9.79243e-07 1.7318e-07 -0.025293 0.00340156 3.54871e-05 0.0565957 -0.203489)
(-1.36269e-06 -4.24394e-07 -6.22782e-07 -3.61103e-06 -0.0252753 0.00340095 1.8859e-05 0.0564753 -0.203492)
(-1.96028e-06 6.50329e-06 -1.02224e-06 1.67976e-06 -0.025291 0.00340373 4.14919e-06 0.0565983 -0.2035)
(1.86735e-07 5.74822e-06 -1.45844e-06 4.00087e-06 -0.0252806 0.00338407 -5.32892e-06 0.0568112 -0.203517)
(6.62251e-07 -2.91074e-06 6.13543e-07 1.71143e-07 -0.0253076 0.00339481 2.24282e-06 0.0566531 -0.203513)
(-7.88165e-07 -4.24812e-06 1.24452e-06 -5.39712e-08 -0.0252855 0.00340006 -3.08558e-07 0.0566069 -0.203508)
(1.21123e-07 4.23791e-06 -1.95991e-06 8.19297e-07 -0.0252965 0.00340186 -5.12647e-06 0.0566096 -0.203509)
(8.80129e-07 -2.3656e-07 6.28903e-07 -5.47137e-07 -0.0253087 0.0033953 4.65075e-07 0.0566509 -0.203515)
(-1.95792e-07 -5.81619e-06 3.19661e-06 -8.75799e-07 -0.0252849 0.0033997 1.99645e-06 0.0566055 -0.203508)
(-9.37597e-07 -5.12946e-07 -1.02449e-06 -2.7243e-06 -0.0252922 0.00340042 -1.8681e-06 0.0565949 -0.203479)
(-1.83015e-06 1.61122e-06 -1.59975e-06 -1.87104e-06 -0.0252892 0.00340397 -9.18206e-06 0.0565984 -0.203509)
(-1.45616e-06 2.6195e-06 1.1399e-06 2.94808e-06 -0.0252896 0.00340386 -2.47329e-05 0.0566098 -0.203505)
(-5.09068e-08 3.97095e-07 8.09128e-08 3.24019e-06 -0.0252681 0.00338727 -2.89066e-05 0.0567084 -0.203505)
(-1.04136e-06 -1.4824e-06 -1.34944e-06 -1.01213e-06 -0.0252865 0.0034008 -4.41184e-05 0.0566107 -0.203512)
(-1.64631e-06 1.85319e-07 3.04625e-07 -2.13372e-06 -0.0252711 0.00340829 -5.67082e-05 0.0565999 -0.203505)
(-3.2606e-06 3.24874e-06 9.36958e-07 1.55989e-06 -0.0252476 0.00338176 -3.99799e-05 0.056693 -0.203493)
(-2.70633e-05 -8.96519e-06 3.91175e-06 -9.88125e-07 -0.0253101 0.00340763 -7.82071e-05 0.0566413 -0.203493)
(-0.000236565 -0.000122851 -9.61017e-05 -5.01827e-05 -0.0252919 0.00340592 -0.00033545 0.0565063 -0.203417)
(-0.00195116 -0.000558887 -0.000909776 -0.000260024 -0.0249549 0.00330233 -0.0024309 0.0555332 -0.203753)
(-0.017769 -0.000669391 0.00487282 -0.000873286 -0.0235831 0.00285463 -0.0220246 0.0507151 -0.205719)
(-0.0860756 0.00310864 0.112098 -0.00666038 -0.0220331 0.00482558 -0.212852 0.0479505 -0.152245)
(-0.0887526 -0.00259376 -0.115981 0.00538892 -0.0139552 0.00255977 0.220254 0.0303925 -0.151231)
(-0.0183685 0.000425683 -0.00501514 0.000791462 -0.0148868 0.000986591 0.0229436 0.0317859 -0.206537)
(-0.0020325 0.000414284 0.000954541 0.000225027 -0.0159442 0.00130271 0.0026828 0.0350832 -0.204475)
(-0.000259789 9.71131e-05 0.000102188 5.0325e-05 -0.0161976 0.00135253 0.000371143 0.0360923 -0.204174)
(-3.14603e-05 1.22383e-05 -5.83946e-06 3.64742e-06 -0.0161865 0.00135332 0.000104763 0.036172 -0.204241)
(-4.38525e-06 -1.72211e-06 -1.30953e-06 -3.02825e-06 -0.0162046 0.00134636 6.00739e-05 0.0363397 -0.204277)
(-1.7164e-06 -5.86914e-06 1.68451e-06 -1.79471e-06 -0.0161598 0.00134437 4.37218e-05 0.0361946 -0.204255)
(-1.80669e-06 2.69582e-06 -4.93463e-07 4.31511e-07 -0.0161999 0.00135591 4.39467e-05 0.0361596 -0.204263)
(-9.99182e-07 -2.32623e-06 7.29709e-07 -9.35359e-07 -0.0161923 0.00134731 2.04058e-05 0.0363136 -0.204276)
(-2.18934e-07 -4.38955e-06 1.00649e-06 -1.32423e-06 -0.0161924 0.00134678 4.07823e-06 0.0360675 -0.204249)
(-8.72677e-07 -3.80337e-07 3.41473e-07 -2.48095e-06 -0.0161717 0.00134683 1.54828e-05 0.036148 -0.204253)
(-1.30605e-06 1.17815e-06 -1.61705e-06 -5.84393e-07 -0.0161942 0.00135055 1.98009e-05 0.036064 -0.204227)
(9.37345e-08 4.85139e-06 -1.43586e-06 4.51001e-06 -0.0162121 0.00134965 -1.41884e-06 0.036085 -0.204251)
(2.42775e-07 -1.97433e-07 1.56451e-06 1.71824e-06 -0.016212 0.00135881 2.92947e-06 0.0361835 -0.204262)
(-7.8444e-07 -3.79036e-06 7.76025e-07 -1.16797e-06 -0.0161984 0.00135072 -3.95855e-08 0.036159 -0.20426)
(1.07213e-07 2.45988e-06 -9.50471e-07 1.0316e-06 -0.0161965 0.00135165 -4.41971e-06 0.0360661 -0.204251)
(5.84881e-07 1.09742e-06 9.82927e-08 2.68008e-07 -0.0162122 0.00135915 -2.80239e-07 0.0361809 -0.204264)
(-3.62178e-07 -5.04054e-06 2.01697e-06 -3.25983e-06 -0.0161977 0.00135037 5.7856e-07 0.0361586 -0.204261)
(-7.94781e-07 -9.40463e-07 -4.70269e-07 -1.85443e-06 -0.0161954 0.00134181 -4.14163e-06 0.0360702 -0.204227)
(-1.53204e-06 2.15227e-06 -8.39623e-07 5.0514e-07 -0.0162044 0.00135635 -9.97114e-06 0.0361493 -0.204257)
(-1.13175e-06 3.64978e-06 -1.03246e-06 2.24764e-06 -0.0162073 0.00135464 -3.7142e-05 0.036157 -0.204239)
(1.33413e-07 8.32444e-07 -5.12952e-07 2.74558e-06 -0.0161888 0.00134406 -2.5845e-05 0.0361882 -0.204261)
(-1.49641e-06 -7.322e-07 1.29253e-06 -2.21574e-07 -0.0161985 0.00135072 -1.25558e-05 0.0361618 -0.204264)
(-1.93043e-06 2.5838e-06 -1.87782e-06 -1.20242e-06 -0.0161894 0.00135045 -5.66705e-05 0.0362118 -0.204242)
(-3.31046e-06 -1.66518e-07 6.68678e-07 9.58202e-07 -0.0161809 0.00133857 -5.50615e-05 0.0362285 -0.204256)
(-3.23896e-05 -1.21312e-05 7.20985e-06 -4.38359e-06 -0.0162175 0.00135776 -8.22209e-05 0.0361742 -0.20424)
(-0.000261096 -9.50201e-05 -0.000102889 -4.98209e-05 -0.016193 0.00135289 -0.000392836 0.0359764 -0.204132)
(-0.0020321 -0.000410964 -0.000955586 -0.0002221 -0.0159526 0.00130811 -0.00268521 0.0350968 -0.204492)
(-0.0183655 -0.000424322 0.00501599 -0.000790209 -0.0148867 0.000987881 -0.0229495 0.0317827 -0.206534)
(-0.0887519 0.00259702 0.115954 -0.0053901 -0.0139429 0.00255228 -0.220201 0.030531 -0.151235)
(-0.0904091 -0.00185817 -0.11881 0.00378632 -0.00882398 0.00124133 0.225649 0.0192489 -0.150955)
(-0.0188046 0.000268582 -0.00512261 0.000626788 -0.00930173 0.000146673 0.0237116 0.0198472 -0.207533)
(-0.00209931 0.000299506 0.000982764 0.000175767 -0.0101033 0.00034809 0.00288382 0.0222876 -0.205471)
(-0.000279338 7.4594e-05 0.000105975 4.1929e-05 -0.0103161 0.000376116 0.000449028 0.0229694 -0.20515)
(-3.67676e-05 9.51313e-06 -5.56551e-06 4.0604e-06 -0.0103235 0.000375539 0.000110114 0.0231564 -0.205217)
(-4.95204e-06 -3.6281e-09 -2.53923e-06 -1.8776e-06 -0.0103411 0.000382358 4.32114e-05 0.0230659 -0.205246)
(-1.3556e-06 -3.67352e-06 1.51527e-06 -1.7074e-06 -0.0103054 0.00036959 4.33089e-05 0.0231575 -0.205231)
(-1.85367e-06 -1.66869e-06 6.42141e-08 -9.71098e-07 -0.0103228 0.000376338 4.236e-05 0.0230319 -0.205244)
(-9.42546e-07 -1.68004e-07 -2.85936e-07 -3.05374e-07 -0.0103326 0.000376765 5.89606e-06 0.0230507 -0.205247)
(-2.47988e-07 -3.8988e-07 8.82851e-07 6.94212e-09 -0.0103011 0.000371354 1.8263e-05 0.0230336 -0.205241)
(-1.21472e-06 -7.77659e-07 1.31217e-07 -2.15386e-06 -0.010311 0.000370929 1.32531e-05 0.0231428 -0.205249)
(-5.62083e-07 -1.56536e-06 -4.57724e-07 -1.66923e-06 -0.0103066 0.000369502 -9.35578e-06 0.0230366 -0.205232)
(6.47261e-07 2.18913e-06 1.92342e-07 3.18755e-06 -0.0103076 0.000377995 1.61335e-05 0.0229612 -0.205225)
(-4.73344e-07 -1.71583e-07 8.27072e-07 1.32435e-06 -0.0103296 0.000379247 1.79952e-05 0.0230468 -0.20524)
(-9.25492e-07 -1.15131e-06 -1.87101e-07 -3.56456e-07 -0.0103223 0.000374375 -1.43034e-05 0.0230317 -0.205241)
(4.08318e-07 1.46635e-06 -2.73242e-07 1.01327e-06 -0.0103044 0.000373852 -3.52957e-06 0.0230332 -0.205237)
(2.18425e-08 -4.78545e-07 3.73064e-07 -5.88218e-07 -0.0103296 0.000379228 1.31875e-05 0.0230442 -0.205242)
(-6.20279e-07 -2.4418e-06 -2.73078e-07 -2.84516e-06 -0.0103215 0.000374614 -1.61144e-05 0.0230319 -0.205242)
(-1.84602e-07 -1.8429e-06 1.71532e-07 -2.01818e-06 -0.0103078 0.000365526 -5.48379e-06 0.0230367 -0.205236)
(-1.00974e-06 -7.80307e-07 9.66267e-07 -9.55944e-07 -0.0103182 0.0003752 4.27675e-06 0.0229427 -0.205228)
(-1.00807e-06 5.73814e-06 -1.31918e-06 3.82409e-06 -0.0103251 0.000371436 -2.04338e-05 0.022958 -0.205212)
(-5.4475e-07 2.1725e-06 -7.01814e-07 3.57606e-06 -0.0103231 0.000377252 -2.3239e-05 0.0231645 -0.205253)
(-1.83096e-06 -1.60337e-06 -7.04369e-08 -1.17151e-06 -0.0103219 0.000374893 -4.18032e-05 0.023034 -0.205245)
(-1.41036e-06 3.7028e-06 -2.12575e-06 2.99278e-07 -0.0103144 0.000370811 -5.60529e-05 0.0230551 -0.205237)
(-3.89684e-06 -2.36905e-06 2.39943e-06 -3.01651e-07 -0.0103102 0.000374546 -3.97479e-05 0.0230897 -0.205236)
(-3.72192e-05 -1.14004e-05 6.77498e-06 -5.95639e-06 -0.010326 0.000376635 -0.000101725 0.0229564 -0.20521)
(-0.000280108 -6.98806e-05 -0.000106032 -3.84349e-05 -0.0103042 0.000367687 -0.000454056 0.0229631 -0.205116)
(-0.00209924 -0.000297625 -0.000982777 -0.000173811 -0.0101088 0.000355244 -0.0028751 0.0222884 -0.205465)
(-0.0188026 -0.000267437 0.00512166 -0.000627339 -0.00930288 0.000149381 -0.0237166 0.019841 -0.207528)
(-0.0904043 0.00186429 0.118796 -0.00379476 -0.00883088 0.00123919 -0.225624 0.0192747 -0.15096)
(-0.091427 -0.00121416 -0.120678 0.00243855 -0.00557091 0.000650111 0.229214 0.0121577 -0.150935)
(-0.0190906 0.000169812 -0.00519379 0.000451674 -0.00577165 -5.34971e-05 0.0243075 0.0123579 -0.208328)
(-0.00214948 0.000211402 0.00100043 0.000132735 -0.00638155 7.26604e-05 0.00304125 0.0141618 -0.206276)
(-0.000294131 5.30792e-05 0.000107677 3.0323e-05 -0.0065402 8.97028e-05 0.000471368 0.0145673 -0.205949)
(-4.02217e-05 7.23743e-06 -4.59109e-06 3.60813e-06 -0.00656144 8.79593e-05 0.000113541 0.0146443 -0.206014)
(-5.53881e-06 1.90581e-06 -2.49932e-06 2.36522e-07 -0.00656046 9.65136e-05 5.52842e-05 0.0146411 -0.206045)
(-1.5351e-06 -2.19436e-06 4.80422e-07 -1.70941e-06 -0.00655493 8.97024e-05 4.08231e-05 0.0147392 -0.206053)
(-1.52628e-06 -2.75246e-06 9.41532e-07 -1.29444e-06 -0.00654851 8.90431e-05 2.81491e-05 0.0146216 -0.206047)
(-8.03574e-07 2.00888e-06 -2.67092e-07 1.12227e-06 -0.00655455 9.39727e-05 2.00714e-05 0.0146309 -0.206048)
(-5.88631e-07 -7.35397e-08 -1.60676e-07 -3.88105e-07 -0.0065411 9.04626e-05 1.78718e-05 0.0147198 -0.206053)
(-1.20791e-06 -1.48143e-06 -2.89589e-08 -2.36321e-06 -0.00655242 8.95795e-05 1.13322e-05 0.0146306 -0.206045)
(-2.37769e-07 1.87153e-06 -2.03813e-07 1.05403e-06 -0.00653725 8.48098e-05 -8.77353e-06 0.0146495 -0.206042)
(6.9245e-07 2.5638e-07 5.13136e-07 1.70984e-06 -0.00653062 8.82549e-05 4.45873e-06 0.0147309 -0.206042)
(-4.66026e-07 -3.14961e-06 8.40511e-07 -1.25604e-06 -0.00655199 9.00886e-05 1.7694e-05 0.0146317 -0.206042)
(-8.46656e-07 1.24235e-06 -3.02838e-07 9.57065e-07 -0.00654966 8.73632e-05 -1.6513e-07 0.0146216 -0.206044)
(6.0861e-08 9.96557e-07 2.00882e-08 9.03964e-07 -0.006543 8.96928e-05 -2.73539e-06 0.0147201 -0.20605)
(-1.86804e-07 -2.31653e-06 2.50602e-07 -1.78773e-06 -0.00655209 8.99302e-05 -1.713e-06 0.0146292 -0.206045)
(-6.48171e-07 -6.7566e-07 -7.23505e-07 -1.87398e-06 -0.00654802 8.83492e-05 -3.87461e-06 0.0146221 -0.206044)
(-4.16938e-07 -2.89071e-07 -3.52978e-07 -7.60591e-07 -0.00654184 8.66499e-05 -1.98706e-05 0.014644 -0.206042)
(-3.63582e-07 -1.30146e-06 3.42488e-07 -1.22488e-06 -0.00653241 8.50161e-05 -2.4253e-05 0.0146199 -0.206035)
(-2.25347e-07 2.68315e-06 -6.22043e-07 2.20338e-06 -0.00652892 8.05947e-05 -4.31998e-06 0.0145558 -0.206031)
(-8.65707e-07 1.45981e-06 1.78406e-07 2.95064e-06 -0.0065598 9.30037e-05 -6.98301e-06 0.0146431 -0.206047)
(-2.15177e-06 9.99967e-07 4.26195e-09 6.43793e-07 -0.00654812 8.92051e-05 -2.83555e-05 0.0146234 -0.206048)
(-1.75646e-06 4.93841e-06 -1.94714e-06 2.32914e-06 -0.00654852 9.0437e-05 -5.48493e-05 0.0147333 -0.206053)
(-4.5616e-06 -2.48892e-06 1.8334e-06 -8.46443e-07 -0.00654451 9.39063e-05 -6.66002e-05 0.0147458 -0.206044)
(-4.00162e-05 -1.09465e-05 5.83793e-06 -7.22989e-06 -0.00653643 8.76381e-05 -9.39454e-05 0.0146269 -0.206016)
(-0.000294667 -5.15777e-05 -0.000107167 -2.89258e-05 -0.00653521 8.10251e-05 -0.000458518 0.0145851 -0.205939)
(-0.00214988 -0.000210691 -0.000999247 -0.000131058 -0.00638582 7.5191e-05 -0.00304583 0.0141613 -0.206268)
(-0.0190897 -0.000168739 0.00519278 -0.000451942 -0.00577371 -5.45672e-05 -0.0243152 0.012357 -0.208305)
(-0.0914235 0.00121972 0.12067 -0.00244664 -0.00557516 0.000654412 -0.229201 0.0121719 -0.15094)
(-0.0920535 -0.000749128 -0.121836 0.00148744 -0.00351726 0.000378177 0.231422 0.00765892 -0.150963)
(-0.0192657 0.000106452 -0.0052381 0.000302243 -0.00357631 -5.33445e-05 0.0247054 0.00769042 -0.208854)
(-0.00218358 0.000145794 0.0010114 9.81231e-05 -0.00402954 2.65367e-05 0.00316012 0.00886144 -0.206805)
(-0.000305163 3.86169e-05 0.000109035 2.28669e-05 -0.00414108 3.49784e-05 0.00049863 0.00921772 -0.206489)
(-4.27849e-05 5.46155e-06 -4.20334e-06 3.12425e-06 -0.00415838 3.46396e-05 0.000114682 0.00927513 -0.20657)
(-6.01555e-06 1.29855e-06 -2.19061e-06 4.83362e-07 -0.00415711 3.71934e-05 5.49152e-05 0.00927488 -0.206588)
(-1.66179e-06 -1.2838e-06 2.11537e-08 -1.28287e-06 -0.00416241 3.95984e-05 3.92936e-05 0.00928134 -0.206592)
(-1.28733e-06 -1.59391e-06 9.18266e-07 -7.43979e-07 -0.00414967 3.43154e-05 2.7879e-05 0.00926273 -0.206591)
(-7.61279e-07 1.31431e-06 -2.02226e-09 4.77167e-07 -0.00415299 3.63719e-05 2.07969e-05 0.00926834 -0.206591)
(-9.45085e-07 3.63205e-08 4.20848e-09 -3.91692e-07 -0.00415635 3.7499e-05 1.76415e-05 0.00927481 -0.206577)
(-9.26295e-07 -7.29646e-09 -9.9936e-07 -6.95957e-07 -0.00415224 3.81138e-05 -3.12125e-06 0.00926853 -0.206588)
(2.52527e-07 2.79487e-06 -7.22639e-07 1.87964e-06 -0.00414146 3.35794e-05 5.71234e-06 0.00927804 -0.206582)
(1.85246e-07 -7.59453e-07 1.24811e-06 4.75599e-07 -0.00415349 3.58004e-05 1.85568e-05 0.00936657 -0.20659)
(-6.23899e-07 -3.97955e-06 6.48723e-07 -2.40502e-06 -0.00415162 3.45254e-05 3.49215e-06 0.00927033 -0.206587)
(-4.93491e-07 6.48157e-07 -2.66261e-07 2.66362e-07 -0.00415433 3.41104e-05 2.71988e-07 0.00926143 -0.206587)
(-1.4064e-07 9.81425e-07 2.4016e-07 1.00026e-06 -0.00415672 3.52764e-05 -2.17094e-06 0.00927639 -0.206577)
(-5.33747e-07 -1.48285e-06 1.04341e-07 -9.99498e-07 -0.0041514 3.43141e-05 -2.77281e-06 0.00926788 -0.206589)
(-4.14852e-07 -3.92054e-07 -9.29125e-07 -1.71328e-06 -0.00415049 3.26535e-05 -1.79171e-05 0.00926353 -0.206588)
(-5.47806e-08 1.27854e-06 -4.95084e-07 5.46748e-07 -0.00413838 3.25087e-05 -6.59314e-06 0.00920717 -0.206563)
(-4.16945e-07 1.80278e-06 -2.44774e-07 1.65661e-06 -0.00414834 3.31648e-05 -1.11255e-05 0.00934795 -0.206588)
(-1.72971e-07 2.60845e-07 2.78329e-07 7.45158e-07 -0.00413148 2.96062e-05 -1.64324e-05 0.00935948 -0.206588)
(-8.56669e-07 -1.66707e-06 1.02026e-06 6.80319e-08 -0.00415666 3.90468e-05 -5.99835e-06 0.00927569 -0.206588)
(-1.95526e-06 6.51994e-07 -5.83778e-07 4.34167e-07 -0.00414956 3.49204e-05 -2.8038e-05 0.00926445 -0.206591)
(-1.70841e-06 4.42431e-06 -1.18551e-06 2.82541e-06 -0.00415976 3.75376e-05 -3.98984e-05 0.00927922 -0.20659)
(-5.80864e-06 4.8635e-08 1.83966e-06 6.12409e-07 -0.00416237 4.16962e-05 -5.30602e-05 0.00937215 -0.206589)
(-4.2835e-05 -9.5401e-06 4.19874e-06 -7.07139e-06 -0.00414775 3.42533e-05 -0.000126029 0.00935212 -0.206569)
(-0.000304874 -3.97582e-05 -0.000108522 -2.38528e-05 -0.00413092 2.92896e-05 -0.000499265 0.00915192 -0.206472)
(-0.00218384 -0.000145324 -0.0010099 -9.64726e-05 -0.00403232 2.59334e-05 -0.00314961 0.00886032 -0.206797)
(-0.0192657 -0.000105305 0.0052375 -0.00030169 -0.00357651 -5.78488e-05 -0.0247102 0.00769091 -0.208853)
(-0.0920519 0.000753714 0.121833 -0.00149369 -0.00351786 0.000382554 -0.231419 0.00766815 -0.150966)
(-0.0924382 -0.000446359 -0.122525 0.000878733 -0.00222739 0.000233796 0.232737 0.00480802 -0.150988)
(-0.0193685 6.73559e-05 -0.00526412 0.000192645 -0.0022241 -2.6722e-05 0.0249624 0.0047861 -0.209178)
(-0.00220535 9.84476e-05 0.00101809 7.05346e-05 -0.00254241 2.36634e-05 0.00324659 0.00556529 -0.207138)
(-0.00031313 2.73113e-05 0.000109298 1.6778e-05 -0.00262751 2.66322e-05 0.000519595 0.00581976 -0.206829)
(-4.46984e-05 4.0314e-06 -4.14809e-06 2.47749e-06 -0.0026452 2.57814e-05 0.000119479 0.00586481 -0.206901)
(-6.42023e-06 1.10078e-06 -1.50757e-06 8.94183e-07 -0.00264065 2.66647e-05 5.46849e-05 0.00586289 -0.20693)
(-1.78057e-06 -7.06408e-07 -9.51941e-08 -8.25659e-07 -0.00264333 3.0825e-05 3.81341e-05 0.00586542 -0.206933)