/*--------------------------------*- C++ -*----------------------------------*\
| =========                 |                                                 |
| \\      /  F ield         | OpenFOAM: The Open Source CFD Toolbox           |
|  \\    /   O peration     | Version:  2106                                  |
|   \\  /    A nd           | Website:  www.openfoam.com                      |
|    \\/     M anipulation  |                                                 |
\*---------------------------------------------------------------------------*/
FoamFile
{
    version     2.0;
    format      ascii;
    arch        "LSB;label=32;scalar=64";
    class       volVectorField;
    location    "661";
    object      D;
}
// * * * * * * * * * * * * * * * * * * * * * * * * * * * * * * * * * * * * * //

dimensions      [0 1 0 0 0 0 0];

internalField   nonuniform List<vector> 
9000
(
(1.1401e-05 2.08535e-05 3.13286e-06)
(1.32494e-06 2.19596e-05 8.1835e-08)
(2.18814e-07 2.33117e-05 1.22923e-06)
(3.87464e-08 2.36142e-05 1.4426e-06)
(4.77182e-09 2.36231e-05 1.44566e-06)
(1.84736e-09 2.35883e-05 1.42368e-06)
(2.16031e-09 2.36076e-05 1.4356e-06)
(9.47194e-10 2.35875e-05 1.4235e-06)
(2.17752e-09 2.35869e-05 1.42306e-06)
(3.25772e-10 2.36141e-05 1.44047e-06)
(-2.19409e-09 2.35986e-05 1.42893e-06)
(1.93424e-09 2.35711e-05 1.41074e-06)
(3.03485e-09 2.36103e-05 1.43812e-06)
(-1.12737e-09 2.36111e-05 1.43831e-06)
(1.35378e-10 2.36023e-05 1.43089e-06)
(1.15883e-09 2.36152e-05 1.44095e-06)
(-1.6175e-09 2.36109e-05 1.4381e-06)
(-2.84031e-10 2.36028e-05 1.4313e-06)
(-1.61096e-09 2.36118e-05 1.43912e-06)
(-1.73086e-09 2.3573e-05 1.4125e-06)
(1.47982e-09 2.35844e-05 1.42139e-06)
(9.88995e-11 2.36127e-05 1.4395e-06)
(-2.31923e-09 2.36151e-05 1.44106e-06)
(-2.23413e-09 2.35896e-05 1.42483e-06)
(-2.26842e-09 2.36103e-05 1.43829e-06)
(-7.42522e-09 2.35977e-05 1.4294e-06)
(-3.8196e-08 2.35956e-05 1.42935e-06)
(-2.17101e-07 2.33053e-05 1.22526e-06)
(-1.3248e-06 2.19592e-05 8.15705e-08)
(-1.14012e-05 2.08524e-05 3.13232e-06)
(1.10745e-05 1.25641e-05 -5.84684e-06)
(1.22257e-06 1.31887e-05 -9.25913e-06)
(1.42853e-07 1.40062e-05 -8.68763e-06)
(2.10914e-08 1.42108e-05 -8.60734e-06)
(5.23695e-09 1.42168e-05 -8.60821e-06)
(2.84627e-09 1.41993e-05 -8.60653e-06)
(2.23585e-09 1.42058e-05 -8.60992e-06)
(1.43841e-09 1.41996e-05 -8.6057e-06)
(1.23796e-09 1.41991e-05 -8.60597e-06)
(9.3166e-10 1.42096e-05 -8.60942e-06)
(4.36032e-10 1.42062e-05 -8.60728e-06)
(6.18774e-10 1.41956e-05 -8.60353e-06)
(4.84215e-10 1.42065e-05 -8.6098e-06)
(-1.03858e-10 1.42054e-05 -8.60885e-06)
(-4.25614e-11 1.42089e-05 -8.60723e-06)
(-2.04526e-11 1.42105e-05 -8.60937e-06)
(-2.92084e-10 1.42053e-05 -8.60888e-06)
(-1.78593e-10 1.42091e-05 -8.60717e-06)
(-4.06371e-10 1.42082e-05 -8.60949e-06)
(-6.88793e-10 1.4197e-05 -8.60349e-06)
(-9.41011e-10 1.41976e-05 -8.60546e-06)
(-1.22565e-09 1.4208e-05 -8.61014e-06)
(-1.57693e-09 1.42104e-05 -8.60937e-06)
(-1.97454e-09 1.42006e-05 -8.60582e-06)
(-2.6337e-09 1.42063e-05 -8.61018e-06)
(-5.43363e-09 1.42075e-05 -8.60442e-06)
(-2.11225e-08 1.42053e-05 -8.60522e-06)
(-1.42895e-07 1.39996e-05 -8.68765e-06)
(-1.22269e-06 1.31884e-05 -9.25911e-06)
(-1.10745e-05 1.25629e-05 -5.8471e-06)
(1.11453e-05 7.77724e-06 -7.41052e-06)
(1.21853e-06 8.20004e-06 -1.09328e-05)
(1.29776e-07 8.7472e-06 -1.04557e-05)
(1.55474e-08 8.89418e-06 -1.04013e-05)
(5.381e-09 8.90012e-06 -1.04033e-05)
(3.18552e-09 8.89469e-06 -1.04005e-05)
(2.24776e-09 8.89171e-06 -1.04036e-05)
(1.82717e-09 8.89702e-06 -1.04005e-05)
(7.14053e-10 8.89634e-06 -1.04008e-05)
(8.19795e-10 8.89484e-06 -1.04035e-05)
(1.50077e-09 8.89239e-06 -1.04027e-05)
(3.11706e-10 8.8943e-06 -1.03991e-05)
(-7.93297e-10 8.89124e-06 -1.04021e-05)
(8.45585e-11 8.89513e-06 -1.04018e-05)
(1.2003e-10 8.89444e-06 -1.04029e-05)
(-5.40875e-10 8.89555e-06 -1.04036e-05)
(4.05449e-11 8.89511e-06 -1.04019e-05)
(1.57397e-10 8.89445e-06 -1.04029e-05)
(2.42734e-10 8.89397e-06 -1.04032e-05)
(-1.21544e-10 8.89524e-06 -1.03996e-05)
(-1.84148e-09 8.89593e-06 -1.03997e-05)
(-1.95161e-09 8.89212e-06 -1.04031e-05)
(-1.12913e-09 8.89554e-06 -1.04036e-05)
(-1.87892e-09 8.89688e-06 -1.04011e-05)
(-2.72277e-09 8.89065e-06 -1.04032e-05)
(-4.57262e-09 8.90252e-06 -1.04001e-05)
(-1.62124e-08 8.89047e-06 -1.04001e-05)
(-1.30426e-07 8.74564e-06 -1.04539e-05)
(-1.21857e-06 8.19985e-06 -1.09326e-05)
(-1.11452e-05 7.77562e-06 -7.41099e-06)
(1.15309e-05 4.89024e-06 -7.09786e-06)
(1.26095e-06 5.1598e-06 -1.0743e-05)
(1.42561e-07 5.55741e-06 -1.02383e-05)
(1.66974e-08 5.66388e-06 -1.018e-05)
(4.90061e-09 5.6696e-06 -1.01823e-05)
(3.15283e-09 5.66624e-06 -1.01821e-05)
(2.35256e-09 5.66252e-06 -1.01824e-05)
(1.70885e-09 5.66733e-06 -1.01835e-05)
(9.11569e-10 5.6657e-06 -1.01827e-05)
(9.82221e-10 5.6661e-06 -1.01823e-05)
(1.40444e-09 5.66423e-06 -1.01823e-05)
(1.29017e-10 5.66532e-06 -1.01824e-05)
(-5.99543e-10 5.66569e-06 -1.01811e-05)
(2.81787e-10 5.67103e-06 -1.01821e-05)
(1.19236e-11 5.66618e-06 -1.01822e-05)
(-4.40941e-10 5.66672e-06 -1.01825e-05)
(4.99479e-11 5.67098e-06 -1.01823e-05)
(1.25809e-10 5.66615e-06 -1.01822e-05)
(5.96625e-11 5.66548e-06 -1.01816e-05)
(-3.3314e-10 5.66616e-06 -1.01831e-05)
(-1.78949e-09 5.66661e-06 -1.01826e-05)
(-1.82725e-09 5.66573e-06 -1.01815e-05)
(-1.17043e-09 5.66684e-06 -1.01825e-05)
(-2.05517e-09 5.66584e-06 -1.01834e-05)
(-2.68408e-09 5.66344e-06 -1.01812e-05)
(-4.16286e-09 5.67096e-06 -1.01828e-05)
(-1.70418e-08 5.66141e-06 -1.01794e-05)
(-1.43234e-07 5.56056e-06 -1.02373e-05)
(-1.26121e-06 5.15974e-06 -1.07428e-05)
(-1.15303e-05 4.8878e-06 -7.09766e-06)
(1.20058e-05 3.08837e-06 -6.68522e-06)
(1.31982e-06 3.23568e-06 -1.04719e-05)
(1.60944e-07 3.53284e-06 -9.93139e-06)
(1.98926e-08 3.6101e-06 -9.86562e-06)
(4.70504e-09 3.6148e-06 -9.86756e-06)
(2.80087e-09 3.61725e-06 -9.86872e-06)
(2.36823e-09 3.61104e-06 -9.86823e-06)
(1.60268e-09 3.61406e-06 -9.86904e-06)
(1.09293e-09 3.61414e-06 -9.86856e-06)
(1.20464e-09 3.6129e-06 -9.868e-06)
(1.12817e-09 3.61111e-06 -9.86792e-06)
(2.22568e-10 3.61242e-06 -9.86838e-06)
(-3.49894e-10 3.61539e-06 -9.86858e-06)
(2.60633e-10 3.61646e-06 -9.86938e-06)
(5.32928e-11 3.61345e-06 -9.86813e-06)
(-4.08528e-10 3.61343e-06 -9.8685e-06)
(-6.63628e-12 3.61635e-06 -9.86949e-06)
(1.29027e-10 3.61343e-06 -9.86814e-06)
(-1.76725e-10 3.61245e-06 -9.86736e-06)
(-5.47162e-10 3.61312e-06 -9.86886e-06)
(-1.45672e-09 3.61358e-06 -9.86843e-06)
(-1.57797e-09 3.61482e-06 -9.86807e-06)
(-1.4895e-09 3.61393e-06 -9.86835e-06)
(-2.22299e-09 3.61402e-06 -9.86894e-06)
(-2.4511e-09 3.61409e-06 -9.86815e-06)
(-4.11446e-09 3.61619e-06 -9.86821e-06)
(-2.01806e-08 3.60821e-06 -9.8653e-06)
(-1.61427e-07 3.53447e-06 -9.93218e-06)
(-1.32017e-06 3.23568e-06 -1.04717e-05)
(-1.20043e-05 3.088e-06 -6.68496e-06)
(1.24205e-05 1.94916e-06 -6.45402e-06)
(1.37759e-06 2.01606e-06 -1.03624e-05)
(1.77669e-07 2.23317e-06 -9.79613e-06)
(2.33195e-08 2.29229e-06 -9.7261e-06)
(4.90767e-09 2.29787e-06 -9.72806e-06)
(2.64347e-09 2.30039e-06 -9.73019e-06)
(2.23479e-09 2.2966e-06 -9.72911e-06)
(1.68443e-09 2.29639e-06 -9.72913e-06)
(1.1014e-09 2.29826e-06 -9.7294e-06)
(1.00085e-09 2.29479e-06 -9.72863e-06)
(9.49903e-10 2.29534e-06 -9.72876e-06)
(3.3423e-10 2.29434e-06 -9.72836e-06)
(-9.63231e-11 2.29605e-06 -9.72985e-06)
(3.44237e-10 2.29777e-06 -9.72935e-06)
(4.72929e-11 2.29591e-06 -9.72868e-06)
(-3.44843e-10 2.29508e-06 -9.72874e-06)
(-3.89788e-11 2.29765e-06 -9.72939e-06)
(-1.32699e-11 2.29593e-06 -9.72873e-06)
(-3.36383e-10 2.29423e-06 -9.72809e-06)
(-5.85853e-10 2.29532e-06 -9.72913e-06)
(-1.39744e-09 2.29571e-06 -9.72866e-06)
(-1.39722e-09 2.29774e-06 -9.72979e-06)
(-1.31814e-09 2.29637e-06 -9.72897e-06)
(-2.35378e-09 2.29741e-06 -9.72891e-06)
(-2.45228e-09 2.29812e-06 -9.73023e-06)
(-4.26549e-09 2.29727e-06 -9.72834e-06)
(-2.37451e-08 2.29004e-06 -9.72518e-06)
(-1.77955e-07 2.23404e-06 -9.79686e-06)
(-1.37774e-06 2.01609e-06 -1.03621e-05)
(-1.24186e-05 1.95098e-06 -6.45419e-06)
(1.27247e-05 1.22831e-06 -6.34371e-06)
(1.42547e-06 1.25135e-06 -1.03402e-05)
(1.91e-07 1.40759e-06 -9.75746e-06)
(2.66089e-08 1.4511e-06 -9.68504e-06)
(5.18448e-09 1.4573e-06 -9.68684e-06)
(2.38756e-09 1.45742e-06 -9.68893e-06)
(2.13842e-09 1.45723e-06 -9.68871e-06)
(1.67836e-09 1.45491e-06 -9.68797e-06)
(9.69179e-10 1.45599e-06 -9.68861e-06)
(1.02515e-09 1.45476e-06 -9.68815e-06)
(7.81658e-10 1.45574e-06 -9.68806e-06)
(1.1681e-10 1.45404e-06 -9.68804e-06)
(2.53169e-10 1.45464e-06 -9.6884e-06)
(5.1746e-10 1.45568e-06 -9.68794e-06)
(-8.67525e-11 1.45446e-06 -9.68772e-06)
(-2.61868e-10 1.45477e-06 -9.68798e-06)
(3.88128e-11 1.45556e-06 -9.68795e-06)
(-3.21163e-10 1.45452e-06 -9.68776e-06)
(-4.51525e-10 1.45387e-06 -9.6882e-06)
(-4.86401e-10 1.45333e-06 -9.68776e-06)
(-1.14941e-09 1.45339e-06 -9.68757e-06)
(-1.20638e-09 1.45716e-06 -9.68859e-06)
(-1.53512e-09 1.45494e-06 -9.688e-06)
(-2.39597e-09 1.45623e-06 -9.68864e-06)
(-2.30931e-09 1.45747e-06 -9.68944e-06)
(-4.7011e-09 1.45459e-06 -9.6869e-06)
(-2.68326e-08 1.44979e-06 -9.6847e-06)
(-1.91064e-07 1.40809e-06 -9.75753e-06)
(-1.42562e-06 1.25137e-06 -1.03398e-05)
(-1.27234e-05 1.22962e-06 -6.34441e-06)
(1.29257e-05 7.73067e-07 -6.28823e-06)
(1.46126e-06 7.76243e-07 -1.03426e-05)
(2.01145e-07 8.86496e-07 -9.74942e-06)
(2.89196e-08 9.17279e-07 -9.67565e-06)
(5.45399e-09 9.21867e-07 -9.67766e-06)
(2.39161e-09 9.2209e-07 -9.67887e-06)
(2.01796e-09 9.23104e-07 -9.67949e-06)
(1.56224e-09 9.20586e-07 -9.67859e-06)
(1.06423e-09 9.21176e-07 -9.67881e-06)
(9.99881e-10 9.21894e-07 -9.67874e-06)
(6.22044e-10 9.2111e-07 -9.67895e-06)
(8.57615e-11 9.20741e-07 -9.67879e-06)
(3.44782e-10 9.2235e-07 -9.67914e-06)
(5.19568e-10 9.21051e-07 -9.67845e-06)
(-1.17624e-11 9.20144e-07 -9.67848e-06)
(-1.81585e-10 9.21776e-07 -9.67861e-06)
(-9.33641e-11 9.20941e-07 -9.67848e-06)
(-3.94846e-10 9.20253e-07 -9.67844e-06)
(-6.14252e-10 9.20412e-07 -9.67901e-06)
(-7.21774e-10 9.20116e-07 -9.67878e-06)
(-8.79842e-10 9.19586e-07 -9.67882e-06)
(-9.09948e-10 9.21929e-07 -9.67916e-06)
(-1.48567e-09 9.20659e-07 -9.67865e-06)
(-2.31993e-09 9.22712e-07 -9.67915e-06)
(-2.48791e-09 9.2403e-07 -9.67997e-06)
(-5.07601e-09 9.20971e-07 -9.67779e-06)
(-2.8879e-08 9.16614e-07 -9.67589e-06)
(-2.01137e-07 8.86649e-07 -9.74919e-06)
(-1.46145e-06 7.76118e-07 -1.0342e-05)
(-1.29251e-05 7.73967e-07 -6.28864e-06)
(1.30502e-05 4.85805e-07 -6.25673e-06)
(1.48578e-06 4.82073e-07 -1.03471e-05)
(2.08731e-07 5.56988e-07 -9.74746e-06)
(3.06617e-08 5.79366e-07 -9.67277e-06)
(5.67464e-09 5.82701e-07 -9.67479e-06)
(2.42448e-09 5.8299e-07 -9.67572e-06)
(1.92102e-09 5.83561e-07 -9.67639e-06)
(1.50474e-09 5.821e-07 -9.67574e-06)
(1.12229e-09 5.82427e-07 -9.67574e-06)
(9.67449e-10 5.82957e-07 -9.67571e-06)
(4.18269e-10 5.82426e-07 -9.67577e-06)
(2.42056e-10 5.82841e-07 -9.67645e-06)
(5.02974e-10 5.84329e-07 -9.6763e-06)
(3.25371e-10 5.8242e-07 -9.67559e-06)
(1.72114e-11 5.81547e-07 -9.67582e-06)
(-1.05674e-10 5.82797e-07 -9.67576e-06)
(-1.78426e-10 5.8233e-07 -9.67564e-06)
(-5.67191e-10 5.81801e-07 -9.67569e-06)
(-5.4169e-10 5.8199e-07 -9.67631e-06)
(-6.539e-10 5.82706e-07 -9.67609e-06)
(-8.49602e-10 5.83232e-07 -9.67651e-06)
(-8.03716e-10 5.82919e-07 -9.67587e-06)
(-1.45377e-09 5.82202e-07 -9.67577e-06)
(-2.08358e-09 5.83444e-07 -9.67624e-06)
(-2.42839e-09 5.8524e-07 -9.67657e-06)
(-5.68293e-09 5.83403e-07 -9.6749e-06)
(-3.06953e-08 5.78759e-07 -9.67362e-06)
(-2.08539e-07 5.56923e-07 -9.7472e-06)
(-1.48593e-06 4.81786e-07 -1.03468e-05)
(-1.30501e-05 4.86534e-07 -6.25682e-06)
(1.31244e-05 3.0427e-07 -6.23752e-06)
(1.50162e-06 2.99589e-07 -1.03495e-05)
(2.14252e-07 3.49378e-07 -9.7456e-06)
(3.19756e-08 3.653e-07 -9.6707e-06)
(5.87888e-09 3.67533e-07 -9.67275e-06)
(2.46608e-09 3.67959e-07 -9.67361e-06)
(1.8549e-09 3.68281e-07 -9.67388e-06)
(1.45524e-09 3.67454e-07 -9.6737e-06)
(1.12596e-09 3.67646e-07 -9.67366e-06)
(9.38524e-10 3.67909e-07 -9.67343e-06)
(4.89926e-10 3.67671e-07 -9.67356e-06)
(3.36046e-10 3.68841e-07 -9.67406e-06)
(4.28217e-10 3.68821e-07 -9.67404e-06)
(1.64525e-10 3.6769e-07 -9.67354e-06)
(3.26338e-12 3.66483e-07 -9.67369e-06)
(-1.39467e-11 3.67823e-07 -9.67365e-06)
(-2.15674e-10 3.6765e-07 -9.67361e-06)
(-6.23411e-10 3.671e-07 -9.67385e-06)
(-5.19715e-10 3.68891e-07 -9.6744e-06)
(-4.96543e-10 3.67231e-07 -9.67406e-06)
(-7.72713e-10 3.68964e-07 -9.67458e-06)
(-8.96893e-10 3.67946e-07 -9.67364e-06)
(-1.43025e-09 3.67576e-07 -9.67369e-06)
(-1.93552e-09 3.68269e-07 -9.67383e-06)
(-2.41769e-09 3.69249e-07 -9.67408e-06)
(-6.03878e-09 3.68166e-07 -9.67295e-06)
(-3.2066e-08 3.66042e-07 -9.67172e-06)
(-2.14006e-07 3.49158e-07 -9.74545e-06)
(-1.50173e-06 2.9936e-07 -1.03494e-05)
(-1.31247e-05 3.05085e-07 -6.23733e-06)
(1.31678e-05 1.88927e-07 -6.22531e-06)
(1.51149e-06 1.85649e-07 -1.03504e-05)
(2.18148e-07 2.18079e-07 -9.74406e-06)
(3.29015e-08 2.29121e-07 -9.66898e-06)
(6.01052e-09 2.30049e-07 -9.67111e-06)
(2.55731e-09 2.30964e-07 -9.67191e-06)
(1.81532e-09 2.31188e-07 -9.67201e-06)
(1.41075e-09 2.3073e-07 -9.672e-06)
(1.10129e-09 2.30873e-07 -9.67199e-06)
(9.08599e-10 2.31027e-07 -9.67188e-06)
(5.39847e-10 2.3083e-07 -9.67185e-06)
(4.03206e-10 2.31293e-07 -9.67244e-06)
(3.98692e-10 2.31543e-07 -9.67194e-06)
(-3.28837e-11 2.30932e-07 -9.67184e-06)
(4.99912e-13 2.30587e-07 -9.67239e-06)
(1.42472e-10 2.31058e-07 -9.67189e-06)
(-2.72324e-10 2.30936e-07 -9.67188e-06)
(-4.92061e-10 2.30019e-07 -9.67208e-06)
(-5.64232e-10 2.32604e-07 -9.67255e-06)
(-6.02719e-10 2.31053e-07 -9.67251e-06)
(-6.35938e-10 2.31052e-07 -9.67253e-06)
(-9.14806e-10 2.30914e-07 -9.67195e-06)
(-1.4049e-09 2.30866e-07 -9.67197e-06)
(-1.84353e-09 2.31214e-07 -9.67196e-06)
(-2.43033e-09 2.31725e-07 -9.67193e-06)
(-6.17959e-09 2.30986e-07 -9.67104e-06)
(-3.3091e-08 2.29486e-07 -9.66981e-06)
(-2.17997e-07 2.17632e-07 -9.74412e-06)
(-1.5115e-06 1.85491e-07 -1.03504e-05)
(-1.31683e-05 1.90172e-07 -6.22525e-06)
(1.31928e-05 1.16543e-07 -6.21827e-06)
(1.51755e-06 1.13612e-07 -1.03507e-05)
(2.20804e-07 1.34209e-07 -9.743e-06)
(3.35037e-08 1.41643e-07 -9.66772e-06)
(6.12004e-09 1.42736e-07 -9.67027e-06)
(2.70195e-09 1.42753e-07 -9.67078e-06)
(1.79958e-09 1.42981e-07 -9.67077e-06)
(1.37884e-09 1.4275e-07 -9.67079e-06)
(1.09334e-09 1.42873e-07 -9.67079e-06)
(8.82036e-10 1.43042e-07 -9.67068e-06)
(5.26869e-10 1.42697e-07 -9.67072e-06)
(4.56054e-10 1.42466e-07 -9.67087e-06)
(4.17513e-10 1.43223e-07 -9.67058e-06)
(2.14863e-12 1.42923e-07 -9.67063e-06)
(9.07471e-12 1.4328e-07 -9.67112e-06)
(8.95546e-11 1.43024e-07 -9.67057e-06)
(-3.96423e-10 1.42994e-07 -9.67057e-06)
(-4.17738e-10 1.42907e-07 -9.67118e-06)
(-3.49168e-10 1.43901e-07 -9.67109e-06)
(-7.41501e-10 1.43611e-07 -9.67114e-06)
(-7.33384e-10 1.43475e-07 -9.67124e-06)
(-8.41904e-10 1.42582e-07 -9.67089e-06)
(-1.37198e-09 1.42892e-07 -9.67074e-06)
(-1.79067e-09 1.43004e-07 -9.67071e-06)
(-2.46148e-09 1.43284e-07 -9.67059e-06)
(-6.43312e-09 1.42578e-07 -9.66987e-06)
(-3.38867e-08 1.41525e-07 -9.66859e-06)
(-2.20596e-07 1.33319e-07 -9.74299e-06)
(-1.51732e-06 1.13511e-07 -1.03507e-05)
(-1.31933e-05 1.16783e-07 -6.21788e-06)
(1.32074e-05 6.94838e-08 -6.21398e-06)
(1.52086e-06 6.6898e-08 -1.03509e-05)
(2.22529e-07 7.93953e-08 -9.74231e-06)
(3.41087e-08 8.41389e-08 -9.66685e-06)
(6.17704e-09 8.52019e-08 -9.66937e-06)
(2.63068e-09 8.4521e-08 -9.6702e-06)
(1.80807e-09 8.49068e-08 -9.67001e-06)
(1.36143e-09 8.48176e-08 -9.67004e-06)
(1.09535e-09 8.49167e-08 -9.67002e-06)
(8.48171e-10 8.49769e-08 -9.66982e-06)
(4.28718e-10 8.45286e-08 -9.67015e-06)
(5.08786e-10 8.51097e-08 -9.67033e-06)
(5.12301e-10 8.51202e-08 -9.66979e-06)
(-3.0034e-11 8.49474e-08 -9.66988e-06)
(1.42329e-11 8.44065e-08 -9.67035e-06)
(1.19784e-10 8.48806e-08 -9.66968e-06)
(-2.9117e-10 8.4998e-08 -9.66966e-06)
(-3.70718e-10 8.58023e-08 -9.67014e-06)
(-4.35552e-10 8.55317e-08 -9.66991e-06)
(-6.53809e-10 8.4698e-08 -9.67031e-06)
(-7.88362e-10 8.61391e-08 -9.67003e-06)
(-9.71911e-10 8.40832e-08 -9.67008e-06)
(-1.32497e-09 8.4966e-08 -9.66989e-06)
(-1.7659e-09 8.48864e-08 -9.66995e-06)
(-2.51763e-09 8.50861e-08 -9.66981e-06)
(-6.53059e-09 8.40659e-08 -9.66902e-06)
(-3.44681e-08 8.52129e-08 -9.66757e-06)
(-2.22396e-07 7.93764e-08 -9.74264e-06)
(-1.52061e-06 6.679e-08 -1.03508e-05)
(-1.32075e-05 6.89827e-08 -6.21357e-06)
(1.32154e-05 3.56482e-08 -6.21155e-06)
(1.52277e-06 3.49829e-08 -1.0351e-05)
(2.23561e-07 4.16912e-08 -9.74193e-06)
(3.44184e-08 4.42314e-08 -9.66628e-06)
(6.14321e-09 4.38353e-08 -9.66924e-06)
(2.67647e-09 4.38668e-08 -9.66973e-06)
(1.85727e-09 4.46897e-08 -9.66958e-06)
(1.35534e-09 4.4681e-08 -9.66961e-06)
(1.07552e-09 4.47497e-08 -9.66959e-06)
(7.80553e-10 4.46872e-08 -9.66952e-06)
(5.59664e-10 4.3924e-08 -9.66968e-06)
(5.81025e-10 4.56094e-08 -9.66961e-06)
(4.00345e-10 4.48947e-08 -9.66931e-06)
(-1.53419e-10 4.47832e-08 -9.66944e-06)
(-1.67914e-11 4.47442e-08 -9.67012e-06)
(2.24647e-10 4.44905e-08 -9.66949e-06)
(-2.047e-10 4.47643e-08 -9.66932e-06)
(-3.17791e-10 4.51627e-08 -9.66973e-06)
(-5.59679e-10 4.50354e-08 -9.66925e-06)
(-6.15144e-10 4.50563e-08 -9.67e-06)
(-8.28394e-10 4.53359e-08 -9.6695e-06)
(-1.03928e-09 4.4606e-08 -9.67006e-06)
(-1.22362e-09 4.47478e-08 -9.66934e-06)
(-1.75752e-09 4.45617e-08 -9.66962e-06)
(-2.63176e-09 4.4813e-08 -9.66937e-06)
(-6.44905e-09 4.45987e-08 -9.66893e-06)
(-3.45208e-08 4.55601e-08 -9.6668e-06)
(-2.23589e-07 4.25507e-08 -9.74204e-06)
(-1.52259e-06 3.47617e-08 -1.0351e-05)
(-1.32155e-05 3.62122e-08 -6.21119e-06)
(1.32188e-05 1.13891e-08 -6.21047e-06)
(1.52376e-06 1.08451e-08 -1.0351e-05)
(2.2402e-07 1.294e-08 -9.74178e-06)
(3.43944e-08 1.3629e-08 -9.66622e-06)
(6.07655e-09 1.32321e-08 -9.66918e-06)
(2.82906e-09 1.38882e-08 -9.66985e-06)
(1.97341e-09 1.38707e-08 -9.66939e-06)
(1.35673e-09 1.38926e-08 -9.66942e-06)
(1.06226e-09 1.39275e-08 -9.6694e-06)
(6.56536e-10 1.39031e-08 -9.66941e-06)
(6.1224e-10 1.39162e-08 -9.66982e-06)
(7.05564e-10 1.41781e-08 -9.66954e-06)
(3.62324e-10 1.38904e-08 -9.66902e-06)
(-7.32274e-11 1.3969e-08 -9.66925e-06)
(-5.71076e-11 1.44589e-08 -9.66977e-06)
(1.36149e-10 1.35003e-08 -9.66959e-06)
(-1.43825e-10 1.38938e-08 -9.66908e-06)
(-3.0341e-10 1.40415e-08 -9.66933e-06)
(-4.57085e-10 1.40076e-08 -9.66918e-06)
(-5.97671e-10 1.49027e-08 -9.66945e-06)
(-8.59466e-10 1.41458e-08 -9.66925e-06)
(-1.06732e-09 1.43915e-08 -9.66978e-06)
(-1.31588e-09 1.387e-08 -9.66928e-06)
(-1.73535e-09 1.35191e-08 -9.66962e-06)
(-2.52417e-09 1.3932e-08 -9.66917e-06)
(-6.42154e-09 1.43936e-08 -9.66857e-06)
(-3.46943e-08 1.41602e-08 -9.66652e-06)
(-2.24206e-07 1.33885e-08 -9.74192e-06)
(-1.52349e-06 1.03178e-08 -1.03513e-05)
(-1.32189e-05 1.12437e-08 -6.21018e-06)
(1.32191e-05 -1.03602e-08 -6.21028e-06)
(1.52358e-06 -1.0895e-08 -1.0351e-05)
(2.24e-07 -1.30487e-08 -9.74176e-06)
(3.44153e-08 -1.39771e-08 -9.66628e-06)
(6.21893e-09 -1.31104e-08 -9.6691e-06)
(2.80393e-09 -1.31404e-08 -9.66955e-06)
(1.86283e-09 -1.4033e-08 -9.6694e-06)
(1.36047e-09 -1.39945e-08 -9.66941e-06)
(1.06241e-09 -1.39744e-08 -9.6694e-06)
(7.58774e-10 -1.39615e-08 -9.66942e-06)
(5.99228e-10 -1.31812e-08 -9.66953e-06)
(5.70671e-10 -1.42184e-08 -9.66957e-06)
(3.70437e-10 -1.42568e-08 -9.66923e-06)
(-3.96494e-11 -1.39412e-08 -9.66925e-06)
(-1.12854e-10 -1.4328e-08 -9.66977e-06)
(1.09998e-10 -1.47791e-08 -9.66958e-06)
(-8.80907e-11 -1.40894e-08 -9.66922e-06)
(-2.6779e-10 -1.41203e-08 -9.66933e-06)
(-3.99904e-10 -1.39201e-08 -9.66919e-06)
(-6.00006e-10 -1.35319e-08 -9.66949e-06)
(-9.10626e-10 -1.39238e-08 -9.66924e-06)
(-1.07815e-09 -1.43866e-08 -9.66978e-06)
(-1.35621e-09 -1.39998e-08 -9.66935e-06)
(-1.73122e-09 -1.48046e-08 -9.66958e-06)
(-2.46867e-09 -1.40402e-08 -9.66918e-06)
(-6.43915e-09 -1.44963e-08 -9.66845e-06)
(-3.46915e-08 -1.41448e-08 -9.66651e-06)
(-2.244e-07 -1.2766e-08 -9.74171e-06)
(-1.52356e-06 -1.19834e-08 -1.03511e-05)
(-1.32186e-05 -1.1286e-08 -6.21022e-06)
(1.32157e-05 -3.61712e-08 -6.21169e-06)
(1.52267e-06 -3.50699e-08 -1.0351e-05)
(2.2351e-07 -4.18618e-08 -9.74192e-06)
(3.44845e-08 -4.47533e-08 -9.66655e-06)
(6.29223e-09 -4.38434e-08 -9.66897e-06)
(2.61907e-09 -4.43767e-08 -9.66978e-06)
(1.80374e-09 -4.48499e-08 -9.66961e-06)
(1.3705e-09 -4.48012e-08 -9.66959e-06)
(1.07988e-09 -4.47621e-08 -9.6696e-06)
(8.07488e-10 -4.47319e-08 -9.66956e-06)
(5.2416e-10 -4.44439e-08 -9.66976e-06)
(4.77796e-10 -4.56223e-08 -9.66969e-06)
(4.28284e-10 -4.52968e-08 -9.6697e-06)
(-7.1739e-11 -4.47234e-08 -9.66939e-06)
(-2.10151e-10 -4.44984e-08 -9.67004e-06)
(1.67518e-10 -4.46566e-08 -9.66997e-06)
(-1.86731e-11 -4.48812e-08 -9.66948e-06)
(-2.31025e-10 -4.5257e-08 -9.66973e-06)
(-3.51783e-10 -4.48364e-08 -9.66922e-06)
(-6.19303e-10 -4.46132e-08 -9.66951e-06)
(-1.01545e-09 -4.48684e-08 -9.66943e-06)
(-1.07834e-09 -4.45913e-08 -9.67006e-06)
(-1.37626e-09 -4.47583e-08 -9.66955e-06)
(-1.74373e-09 -4.47562e-08 -9.67007e-06)
(-2.46541e-09 -4.48519e-08 -9.6694e-06)
(-6.44918e-09 -4.48167e-08 -9.66891e-06)
(-3.44657e-08 -4.54698e-08 -9.66674e-06)
(-2.24175e-07 -4.15144e-08 -9.74172e-06)
(-1.52283e-06 -3.49919e-08 -1.03511e-05)
(-1.32146e-05 -3.62213e-08 -6.21129e-06)
(1.32076e-05 -6.98024e-08 -6.21377e-06)
(1.52081e-06 -6.6961e-08 -1.03509e-05)
(2.22434e-07 -7.96748e-08 -9.7424e-06)
(3.42008e-08 -8.50806e-08 -9.66709e-06)
(6.33193e-09 -8.52648e-08 -9.6692e-06)
(2.57794e-09 -8.47877e-08 -9.67001e-06)
(1.77794e-09 -8.5007e-08 -9.67006e-06)
(1.38354e-09 -8.49469e-08 -9.67004e-06)
(1.11994e-09 -8.48964e-08 -9.67002e-06)
(8.32503e-10 -8.49316e-08 -9.66979e-06)
(3.64402e-10 -8.48147e-08 -9.67001e-06)
(3.85012e-10 -8.50496e-08 -9.6704e-06)
(5.58044e-10 -8.58729e-08 -9.67013e-06)
(1.32904e-10 -8.49653e-08 -9.66969e-06)
(-7.2392e-11 -8.39286e-08 -9.67007e-06)
(1.95421e-11 -8.40271e-08 -9.66982e-06)
(-2.26184e-10 -8.50695e-08 -9.6699e-06)
(-2.22253e-10 -8.5907e-08 -9.67016e-06)
(-2.7924e-10 -8.5192e-08 -9.66964e-06)
(-6.23463e-10 -8.49137e-08 -9.66987e-06)
(-9.00156e-10 -8.52119e-08 -9.66987e-06)
(-1.0587e-09 -8.40699e-08 -9.67007e-06)
(-1.38463e-09 -8.48794e-08 -9.66997e-06)
(-1.75186e-09 -8.40647e-08 -9.67017e-06)
(-2.47662e-09 -8.49918e-08 -9.66986e-06)
(-6.50811e-09 -8.42363e-08 -9.66905e-06)
(-3.42927e-08 -8.51525e-08 -9.66733e-06)
(-2.22787e-07 -7.92839e-08 -9.74188e-06)
(-1.52093e-06 -6.57603e-08 -1.03509e-05)
(-1.32069e-05 -6.89655e-08 -6.21361e-06)
(1.31928e-05 -1.1673e-07 -6.21817e-06)
(1.5175e-06 -1.13606e-07 -1.03508e-05)
(2.20623e-07 -1.34658e-07 -9.74332e-06)
(3.36326e-08 -1.41725e-07 -9.6682e-06)
(6.346e-09 -1.427e-07 -9.6702e-06)
(2.6666e-09 -1.42896e-07 -9.67071e-06)
(1.78133e-09 -1.4296e-07 -9.67085e-06)
(1.4002e-09 -1.42856e-07 -9.67083e-06)
(1.15464e-09 -1.4282e-07 -9.67078e-06)
(8.38643e-10 -1.42966e-07 -9.67043e-06)
(4.22671e-10 -1.42884e-07 -9.6707e-06)
(2.5208e-10 -1.42256e-07 -9.67086e-06)
(4.47424e-10 -1.42958e-07 -9.67115e-06)
(3.11953e-10 -1.42977e-07 -9.67057e-06)
(9.63981e-12 -1.42407e-07 -9.6709e-06)
(-5.52047e-11 -1.426e-07 -9.6706e-06)
(-4.04949e-10 -1.4311e-07 -9.67068e-06)
(-2.35838e-10 -1.43004e-07 -9.6712e-06)
(-1.5238e-10 -1.43176e-07 -9.67062e-06)
(-6.18989e-10 -1.42939e-07 -9.67065e-06)
(-8.51241e-10 -1.43485e-07 -9.67075e-06)
(-1.0248e-09 -1.42612e-07 -9.67085e-06)
(-1.38261e-09 -1.42834e-07 -9.67073e-06)
(-1.76578e-09 -1.42436e-07 -9.67099e-06)
(-2.49509e-09 -1.42971e-07 -9.67064e-06)
(-6.42706e-09 -1.42693e-07 -9.66993e-06)
(-3.379e-08 -1.41398e-07 -9.66841e-06)
(-2.20805e-07 -1.34112e-07 -9.74271e-06)
(-1.51748e-06 -1.12992e-07 -1.0351e-05)
(-1.3193e-05 -1.16768e-07 -6.21787e-06)
(1.31677e-05 -1.89041e-07 -6.2253e-06)
(1.51142e-06 -1.85552e-07 -1.03503e-05)
(2.18117e-07 -2.18824e-07 -9.7443e-06)
(3.3044e-08 -2.28372e-07 -9.66914e-06)
(6.08494e-09 -2.29928e-07 -9.67114e-06)
(2.55335e-09 -2.31046e-07 -9.67191e-06)
(1.80776e-09 -2.30959e-07 -9.67209e-06)
(1.42066e-09 -2.3079e-07 -9.67205e-06)
(1.17986e-09 -2.30773e-07 -9.67198e-06)
(8.27887e-10 -2.3097e-07 -9.67156e-06)
(4.2043e-10 -2.30985e-07 -9.67189e-06)
(3.47351e-10 -2.3083e-07 -9.67216e-06)
(4.02274e-10 -2.30154e-07 -9.67204e-06)
(2.35255e-10 -2.30932e-07 -9.67186e-06)
(2.98412e-11 -2.30643e-07 -9.67197e-06)
(-9.87269e-11 -2.30836e-07 -9.67186e-06)
(-2.97654e-10 -2.31275e-07 -9.67201e-06)
(-2.32276e-10 -2.30121e-07 -9.67211e-06)
(-2.53806e-10 -2.31082e-07 -9.67196e-06)
(-6.51169e-10 -2.30961e-07 -9.67188e-06)
(-8.42309e-10 -2.32027e-07 -9.67232e-06)
(-9.6691e-10 -2.31019e-07 -9.67188e-06)
(-1.36658e-09 -2.30821e-07 -9.67195e-06)
(-1.7865e-09 -2.30597e-07 -9.67203e-06)
(-2.52278e-09 -2.31034e-07 -9.67185e-06)
(-6.18724e-09 -2.3105e-07 -9.67111e-06)
(-3.30204e-08 -2.28955e-07 -9.66936e-06)
(-2.18118e-07 -2.17794e-07 -9.74385e-06)
(-1.5116e-06 -1.85211e-07 -1.03505e-05)
(-1.31682e-05 -1.90182e-07 -6.22521e-06)
(1.31244e-05 -3.04344e-07 -6.23754e-06)
(1.50151e-06 -2.99598e-07 -1.0349e-05)
(2.14307e-07 -3.48957e-07 -9.74583e-06)
(3.21608e-08 -3.65014e-07 -9.67095e-06)
(5.85853e-09 -3.67206e-07 -9.67297e-06)
(2.52022e-09 -3.68022e-07 -9.67365e-06)
(1.86068e-09 -3.67651e-07 -9.67381e-06)
(1.44031e-09 -3.67448e-07 -9.67375e-06)
(1.19293e-09 -3.67459e-07 -9.67364e-06)
(8.02304e-10 -3.67655e-07 -9.6732e-06)
(3.90676e-10 -3.67852e-07 -9.67362e-06)
(3.83172e-10 -3.68005e-07 -9.67376e-06)
(3.90209e-10 -3.67429e-07 -9.67384e-06)
(2.13898e-10 -3.67676e-07 -9.67358e-06)
(4.17135e-11 -3.67441e-07 -9.67364e-06)
(-1.44991e-10 -3.67555e-07 -9.67363e-06)
(-2.38917e-10 -3.68345e-07 -9.67398e-06)
(-1.9902e-10 -3.67264e-07 -9.67391e-06)
(-2.98542e-10 -3.6773e-07 -9.67373e-06)
(-7.4055e-10 -3.67691e-07 -9.67358e-06)
(-8.6598e-10 -3.69675e-07 -9.67424e-06)
(-8.64326e-10 -3.68153e-07 -9.67356e-06)
(-1.3312e-09 -3.67513e-07 -9.67366e-06)
(-1.81893e-09 -3.67366e-07 -9.67365e-06)
(-2.56797e-09 -3.67918e-07 -9.67357e-06)
(-6.05372e-09 -3.68199e-07 -9.67303e-06)
(-3.19918e-08 -3.65131e-07 -9.67109e-06)
(-2.14118e-07 -3.48824e-07 -9.74527e-06)
(-1.50183e-06 -2.99196e-07 -1.03494e-05)
(-1.31248e-05 -3.05143e-07 -6.23731e-06)
(1.30501e-05 -4.85853e-07 -6.25675e-06)
(1.48581e-06 -4.8216e-07 -1.03468e-05)
(2.08792e-07 -5.5526e-07 -9.74693e-06)
(3.06534e-08 -5.79354e-07 -9.67284e-06)
(5.61436e-09 -5.82205e-07 -9.67488e-06)
(2.53981e-09 -5.83078e-07 -9.67587e-06)
(1.94852e-09 -5.8218e-07 -9.67577e-06)
(1.44613e-09 -5.82018e-07 -9.67578e-06)
(1.18506e-09 -5.82096e-07 -9.67566e-06)
(7.59427e-10 -5.82258e-07 -9.6753e-06)
(3.55019e-10 -5.82733e-07 -9.67585e-06)
(4.01551e-10 -5.83147e-07 -9.67598e-06)
(3.89417e-10 -5.82431e-07 -9.67578e-06)
(2.19379e-10 -5.82417e-07 -9.67564e-06)
(6.94745e-11 -5.82074e-07 -9.67569e-06)
(-2.19075e-10 -5.82118e-07 -9.67571e-06)
(-2.08758e-10 -5.8357e-07 -9.67595e-06)
(-1.17044e-10 -5.82073e-07 -9.67579e-06)
(-3.21979e-10 -5.82281e-07 -9.67584e-06)
(-9.21099e-10 -5.8231e-07 -9.67562e-06)
(-9.13081e-10 -5.84072e-07 -9.67639e-06)
(-6.84647e-10 -5.83306e-07 -9.67583e-06)
(-1.27861e-09 -5.82094e-07 -9.67573e-06)
(-1.87119e-09 -5.81991e-07 -9.67569e-06)
(-2.63699e-09 -5.82882e-07 -9.67577e-06)
(-5.74388e-09 -5.83451e-07 -9.675e-06)
(-3.05078e-08 -5.78962e-07 -9.67304e-06)
(-2.08657e-07 -5.56021e-07 -9.74682e-06)
(-1.48605e-06 -4.81667e-07 -1.03469e-05)
(-1.30503e-05 -4.86664e-07 -6.25691e-06)
(1.29256e-05 -7.73092e-07 -6.28824e-06)
(1.4614e-06 -7.76267e-07 -1.03425e-05)
(2.01183e-07 -8.84891e-07 -9.74893e-06)
(2.87627e-08 -9.17575e-07 -9.67572e-06)
(5.33771e-09 -9.21039e-07 -9.67771e-06)
(2.60584e-09 -9.22283e-07 -9.67915e-06)
(2.07324e-09 -9.20645e-07 -9.67845e-06)
(1.43712e-09 -9.20432e-07 -9.67862e-06)
(1.14835e-09 -9.2064e-07 -9.67858e-06)
(6.93614e-10 -9.20573e-07 -9.67849e-06)
(3.29689e-10 -9.21613e-07 -9.67909e-06)
(4.16835e-10 -9.22333e-07 -9.67937e-06)
(3.80509e-10 -9.21307e-07 -9.67878e-06)
(2.39273e-10 -9.21103e-07 -9.67855e-06)
(1.22572e-10 -9.20534e-07 -9.67855e-06)
(-3.44592e-10 -9.20487e-07 -9.67855e-06)
(-1.93985e-10 -9.21152e-07 -9.6789e-06)
(4.4071e-11 -9.20582e-07 -9.67861e-06)
(-3.32033e-10 -9.20627e-07 -9.67871e-06)
(-9.45022e-10 -9.20744e-07 -9.67849e-06)
(-9.70677e-10 -9.20932e-07 -9.67917e-06)
(-6.79826e-10 -9.22581e-07 -9.67928e-06)
(-1.2165e-09 -9.20496e-07 -9.67859e-06)
(-1.94719e-09 -9.20433e-07 -9.67856e-06)
(-2.75793e-09 -9.21929e-07 -9.67905e-06)
(-5.50761e-09 -9.21046e-07 -9.67786e-06)
(-2.8573e-08 -9.17914e-07 -9.67596e-06)
(-2.01006e-07 -8.84957e-07 -9.74889e-06)
(-1.4616e-06 -7.75769e-07 -1.03424e-05)
(-1.29252e-05 -7.74205e-07 -6.28881e-06)
(1.27245e-05 -1.22832e-06 -6.34371e-06)
(1.42567e-06 -1.25136e-06 -1.03402e-05)
(1.90892e-07 -1.40763e-06 -9.75732e-06)
(2.63975e-08 -1.45185e-06 -9.68533e-06)
(5.02555e-09 -1.45581e-06 -9.6871e-06)
(2.68526e-09 -1.45777e-06 -9.68864e-06)
(2.21686e-09 -1.45486e-06 -9.68801e-06)
(1.46523e-09 -1.45472e-06 -9.68801e-06)
(1.12478e-09 -1.45517e-06 -9.68823e-06)
(5.91649e-10 -1.4546e-06 -9.68799e-06)
(2.72945e-10 -1.45651e-06 -9.68825e-06)
(4.37182e-10 -1.45769e-06 -9.68872e-06)
(3.61578e-10 -1.45623e-06 -9.68852e-06)
(2.63517e-10 -1.4558e-06 -9.68807e-06)
(1.96122e-10 -1.4549e-06 -9.68789e-06)
(-2.36848e-10 -1.45476e-06 -9.68787e-06)
(-1.73538e-10 -1.45481e-06 -9.68815e-06)
(1.74206e-11 -1.45486e-06 -9.68797e-06)
(-3.33433e-10 -1.45472e-06 -9.68783e-06)
(-8.32812e-10 -1.45507e-06 -9.68789e-06)
(-1.04367e-09 -1.45548e-06 -9.68874e-06)
(-8.47282e-10 -1.45823e-06 -9.68891e-06)
(-1.14205e-09 -1.45474e-06 -9.68792e-06)
(-2.0414e-09 -1.45473e-06 -9.68793e-06)
(-2.68077e-09 -1.45717e-06 -9.6885e-06)
(-5.29657e-09 -1.45466e-06 -9.68676e-06)
(-2.63567e-08 -1.45071e-06 -9.68516e-06)
(-1.90673e-07 -1.40727e-06 -9.75703e-06)
(-1.42592e-06 -1.25079e-06 -1.03399e-05)
(-1.27236e-05 -1.22989e-06 -6.34386e-06)
(1.24202e-05 -1.94914e-06 -6.45403e-06)
(1.37762e-06 -2.01608e-06 -1.03624e-05)
(1.77501e-07 -2.23438e-06 -9.79662e-06)
(2.34344e-08 -2.29375e-06 -9.72664e-06)
(4.69073e-09 -2.2979e-06 -9.72816e-06)
(2.83088e-09 -2.2987e-06 -9.73013e-06)
(2.42862e-09 -2.296e-06 -9.72907e-06)
(1.51268e-09 -2.29621e-06 -9.7292e-06)
(1.11553e-09 -2.29712e-06 -9.72991e-06)
(3.8659e-10 -2.29568e-06 -9.72877e-06)
(1.19474e-10 -2.29644e-06 -9.72899e-06)
(4.89102e-10 -2.29836e-06 -9.72877e-06)
(3.89656e-10 -2.2985e-06 -9.72918e-06)
(2.92337e-10 -2.29794e-06 -9.72954e-06)
(2.68199e-10 -2.29651e-06 -9.7289e-06)
(-1.57394e-10 -2.29627e-06 -9.72888e-06)