/*--------------------------------*- C++ -*----------------------------------*\
| =========                 |                                                 |
| \\      /  F ield         | OpenFOAM: The Open Source CFD Toolbox           |
|  \\    /   O peration     | Version:  2106                                  |
|   \\  /    A nd           | Website:  www.openfoam.com                      |
|    \\/     M anipulation  |                                                 |
\*---------------------------------------------------------------------------*/
FoamFile
{
    version     2.0;
    format      ascii;
    arch        "LSB;label=32;scalar=64";
    class       volSymmTensorField;
    location    "661";
    object      epsilon;
}
// * * * * * * * * * * * * * * * * * * * * * * * * * * * * * * * * * * * * * //

dimensions      [0 0 0 0 0 0 0];

internalField   nonuniform List<symmTensor> 
9000
(
(-0.0855812 -0.000263539 0.0481626 -0.147117 0.0614075 -0.025371)
(-0.0167733 0.000537796 0.00938419 -0.156475 0.0651285 -0.0697519)
(-0.0019293 0.00033574 0.00256619 -0.166385 0.0691562 -0.0595177)
(-0.000321064 5.06268e-05 0.000452209 -0.167997 0.0700447 -0.0573965)
(-5.53485e-05 -7.94589e-06 4.03646e-05 -0.168078 0.0700713 -0.0574088)
(-3.91727e-06 -2.05233e-06 1.81405e-05 -0.167896 0.0698598 -0.0576827)
(-1.35024e-06 -3.24717e-08 2.58065e-05 -0.16802 0.0700232 -0.0575678)
(2.58096e-08 -5.91505e-06 7.88803e-06 -0.167889 0.0698609 -0.0576826)
(-9.32133e-07 6.4525e-06 3.13441e-05 -0.167887 0.0698577 -0.0576899)
(-6.55741e-06 6.63344e-06 -7.40075e-06 -0.168061 0.0700451 -0.0574715)
(2.41269e-06 -6.26015e-06 -4.90013e-05 -0.167943 0.069928 -0.057598)
(7.84341e-06 -5.37506e-07 3.96944e-05 -0.167761 0.0697376 -0.0578374)
(-4.5924e-06 5.45041e-06 5.88482e-05 -0.16805 0.0700334 -0.057499)
(-4.34921e-06 8.27528e-07 -3.02219e-05 -0.168067 0.0700423 -0.0574877)
(3.42929e-06 8.62088e-07 1.85131e-06 -0.167955 0.069937 -0.0575819)
(-2.62932e-06 -1.18822e-06 3.04802e-05 -0.168064 0.070047 -0.0574729)
(-2.16429e-06 3.3758e-07 -3.62941e-05 -0.168066 0.0700413 -0.0574927)
(9.80637e-09 7.56461e-07 -3.07058e-06 -0.167958 0.0699391 -0.0575733)
(-2.17024e-06 -6.66395e-06 -2.47212e-05 -0.168052 0.0700387 -0.0574875)
(4.63617e-06 -6.37533e-06 -2.66181e-05 -0.167773 0.0697469 -0.0578018)
(2.74464e-06 5.81615e-06 3.96479e-05 -0.167874 0.069851 -0.0577151)
(-5.69857e-06 6.53375e-06 6.6663e-06 -0.16806 0.0700388 -0.0574862)
(-3.49955e-06 -5.882e-06 -3.21969e-05 -0.168064 0.0700478 -0.0574685)
(7.62188e-08 -8.11929e-07 -2.68126e-05 -0.1679 0.0698652 -0.0576692)
(-7.78663e-06 1.65713e-06 -2.46419e-05 -0.168052 0.0700332 -0.0574956)
(-5.38914e-05 1.94043e-06 -9.37517e-05 -0.167912 0.0698904 -0.0576054)
(-0.000314513 -4.56814e-05 -0.000440545 -0.167867 0.06992 -0.0575388)
(-0.0019299 -0.000335522 -0.00252852 -0.16638 0.0691447 -0.0595439)
(-0.0167761 -0.000536854 -0.00938258 -0.156473 0.0651275 -0.0697533)
(-0.0855805 0.000263467 -0.0481636 -0.147116 0.0614031 -0.0253765)
(-0.0724037 -1.12864e-05 0.0464795 -0.0980721 0.0681831 -0.12899)
(-0.0163974 0.00068251 0.00802527 -0.103197 0.0717482 -0.175005)
(-0.00180221 0.000432669 0.00154298 -0.109234 0.0762341 -0.171321)
(-0.000206425 7.0956e-05 0.00023008 -0.1104 0.0773918 -0.170638)
(-2.73676e-05 -6.32269e-06 3.28973e-05 -0.110422 0.0774247 -0.170684)
(-4.50164e-06 -3.26305e-06 3.17456e-05 -0.110202 0.077358 -0.170699)
(-2.11178e-06 5.09084e-07 2.6082e-05 -0.110369 0.0773692 -0.17071)
(-1.49683e-06 -1.71381e-06 -2.54892e-06 -0.110178 0.0773628 -0.170696)
(-7.6013e-07 2.0638e-06 3.42547e-05 -0.110179 0.0773558 -0.170703)
(-1.2029e-06 7.22639e-06 3.386e-05 -0.110394 0.0773822 -0.170707)
(-4.69329e-07 3.32815e-06 -1.14507e-05 -0.110296 0.0775572 -0.170677)
(7.2274e-08 -5.88317e-06 4.29008e-06 -0.110076 0.0775219 -0.170667)
(-1.08395e-06 -6.98944e-06 2.36968e-05 -0.110393 0.0773648 -0.17071)
(-7.90164e-07 6.30591e-06 1.7676e-06 -0.11037 0.0772297 -0.170691)
(1.25108e-07 3.7513e-06 -1.46376e-06 -0.110309 0.0775707 -0.17068)
(-3.74283e-07 -9.01659e-06 -2.05081e-06 -0.110397 0.0773868 -0.170711)
(-2.3721e-07 5.16458e-06 -7.89514e-07 -0.110368 0.0772286 -0.170694)
(-1.71432e-07 3.8075e-06 -3.41938e-06 -0.110313 0.077572 -0.170676)
(-7.65301e-07 -2.1473e-06 -2.4558e-05 -0.110384 0.0773726 -0.170711)
(-8.01959e-07 -1.92095e-06 -2.78784e-05 -0.110083 0.0775423 -0.170666)
(-8.05285e-07 -4.15623e-06 4.68652e-06 -0.110164 0.0773435 -0.170691)
(-9.53879e-07 1.92018e-06 4.8825e-06 -0.110405 0.0773722 -0.170713)
(-1.12333e-06 -1.08852e-06 -3.77552e-05 -0.110397 0.0773872 -0.170708)
(-1.58516e-06 -1.7409e-06 -2.31757e-05 -0.110196 0.0773656 -0.170694)
(-5.18864e-06 3.42034e-06 -2.94487e-05 -0.110398 0.0773622 -0.170711)
(-2.77331e-05 9.93063e-06 -5.13809e-05 -0.110214 0.0774079 -0.170668)
(-0.000206191 -7.34562e-05 -0.000209711 -0.110288 0.0775549 -0.170607)
(-0.00180235 -0.000437647 -0.00154497 -0.109197 0.076074 -0.171319)
(-0.0163974 -0.000679173 -0.0080279 -0.103195 0.0717462 -0.175003)
(-0.0724026 1.12625e-05 -0.04648 -0.0980758 0.0681729 -0.12899)
(-0.076305 0.00117272 0.0467463 -0.057554 0.0581654 -0.153404)
(-0.0165233 0.000871417 0.00786513 -0.0602169 0.060647 -0.201966)
(-0.00180447 0.000519506 0.00136837 -0.0633659 0.0647174 -0.199929)
(-0.000186592 9.82125e-05 0.000169823 -0.064102 0.0658942 -0.199627)
(-1.85429e-05 -8.83957e-07 5.66007e-05 -0.064104 0.0659374 -0.199687)
(-4.69986e-06 -5.15299e-06 3.51503e-05 -0.0639982 0.066047 -0.199648)
(-2.03753e-06 2.1852e-06 2.51911e-05 -0.0640743 0.0658763 -0.199696)
(-2.30057e-06 4.48312e-06 2.21451e-05 -0.0639918 0.0661445 -0.199667)
(-1.51106e-06 -2.85769e-06 7.95776e-06 -0.0640003 0.0661372 -0.199671)
(1.18008e-06 -2.77325e-06 9.31662e-06 -0.0640766 0.0658975 -0.199701)
(-7.62134e-07 3.22868e-06 1.85014e-05 -0.0640651 0.0658723 -0.199687)
(-3.4411e-06 -2.69547e-06 4.69652e-06 -0.0639771 0.0661189 -0.199649)
(-3.40721e-07 -3.44537e-06 -2.00101e-05 -0.0640562 0.0657874 -0.199657)
(1.36999e-06 3.8418e-06 5.57633e-07 -0.064008 0.0659005 -0.199683)
(-9.3815e-07 5.2012e-07 1.20742e-05 -0.0640701 0.0658885 -0.199691)
(-1.19227e-07 -1.06941e-06 -1.70035e-05 -0.0640784 0.0659035 -0.199703)
(1.04741e-06 4.60885e-07 2.18631e-07 -0.0640076 0.0658992 -0.199686)
(3.03284e-07 2.87231e-07 1.1604e-05 -0.0640722 0.0658879 -0.199691)
(-4.18412e-07 2.33701e-06 2.89339e-06 -0.0640704 0.0658877 -0.1997)
(-3.12632e-06 2.8044e-06 -8.49763e-07 -0.0639811 0.0661239 -0.199653)
(-2.7451e-06 -5.52143e-06 -2.14388e-05 -0.0639824 0.0661385 -0.199657)
(1.06852e-06 -2.54988e-06 -2.3419e-05 -0.0640673 0.0657964 -0.199683)
(1.09044e-07 5.0934e-06 -1.31001e-05 -0.0640767 0.0659044 -0.199703)
(-2.39046e-06 -3.97423e-06 -2.12569e-05 -0.0640109 0.0661442 -0.199667)
(-4.04056e-06 4.04268e-06 -3.02235e-05 -0.0640715 0.0657863 -0.199676)
(-2.02344e-05 4.63553e-06 -4.65533e-05 -0.0640238 0.0661854 -0.19965)
(-0.00018878 -0.000102354 -0.000189287 -0.0640791 0.0658569 -0.19961)
(-0.00180354 -0.000519243 -0.00137524 -0.0632929 0.0646978 -0.199916)
(-0.0165221 -0.000871956 -0.00785463 -0.0602148 0.0606451 -0.201963)
(-0.0763022 -0.00117251 -0.046746 -0.0575633 0.0581526 -0.153406)
(-0.0818782 0.00181545 0.0483691 -0.0351666 0.0409092 -0.154294)
(-0.0170826 0.000880228 0.0081378 -0.0372328 0.0422667 -0.205378)
(-0.00186638 0.000494937 0.00148807 -0.0391077 0.0456083 -0.203493)
(-0.00020649 0.000100441 0.000190407 -0.0396306 0.0464867 -0.203203)
(-2.03169e-05 -7.67713e-07 4.17658e-05 -0.0396399 0.0465331 -0.203268)
(-3.82208e-06 -6.75326e-06 3.56907e-05 -0.0395808 0.0464298 -0.203236)
(-2.16597e-06 1.27034e-06 3.36525e-05 -0.039605 0.0464174 -0.203264)
(-2.16149e-06 1.54125e-06 1.91088e-05 -0.0396222 0.0465018 -0.203286)
(-1.08994e-06 5.00059e-07 1.2513e-05 -0.0396165 0.0464282 -0.203249)
(7.39312e-07 3.407e-07 1.17026e-05 -0.0396145 0.0465014 -0.20328)
(-1.27981e-06 -1.97973e-06 1.47287e-05 -0.0396095 0.0464881 -0.203277)
(-3.00598e-06 7.5743e-07 -4.58384e-06 -0.0396141 0.0464793 -0.203254)
(2.29155e-07 5.94284e-06 -3.63426e-06 -0.0395689 0.0465024 -0.203259)
(9.172e-07 1.03043e-06 1.04163e-05 -0.03959 0.0466671 -0.203286)
(-1.08409e-06 -3.4793e-06 -7.42116e-07 -0.0396074 0.0465023 -0.203279)
(5.70364e-08 4.0968e-06 -3.80155e-06 -0.0396159 0.0465079 -0.203284)
(8.50125e-07 -6.09045e-07 -1.97945e-07 -0.0395907 0.0466657 -0.203289)
(1.45719e-08 -4.22937e-06 -2.20131e-07 -0.0396077 0.0465019 -0.20328)
(-6.88422e-07 -1.56356e-06 -1.35949e-06 -0.0396114 0.0464924 -0.203258)
(-2.77372e-06 -7.49171e-07 -5.6635e-06 -0.0396159 0.0464901 -0.20328)
(-2.24116e-06 1.11768e-06 -2.63034e-05 -0.0396177 0.0464917 -0.203261)
(9.2858e-07 1.57281e-06 -1.98615e-05 -0.0395797 0.0464963 -0.203252)
(-3.41888e-07 -1.26454e-06 -6.97261e-06 -0.0396121 0.0465102 -0.203284)
(-2.27047e-06 -3.84287e-06 -3.06393e-05 -0.0396214 0.0464323 -0.20327)
(-3.16153e-06 4.85924e-06 -3.06848e-05 -0.0395742 0.04642 -0.203228)
(-2.15366e-05 1.95774e-07 -3.53743e-05 -0.0396475 0.0465318 -0.203265)
(-0.000208606 -9.76866e-05 -0.000192048 -0.039617 0.0464612 -0.203193)
(-0.00186625 -0.000492501 -0.00149567 -0.0390838 0.0457507 -0.203466)
(-0.0170806 -0.000885583 -0.00814148 -0.0372313 0.0422653 -0.205375)
(-0.0818824 -0.00181475 -0.0483671 -0.0351571 0.0408323 -0.15428)
(-0.0860587 0.00177846 0.0503696 -0.0220581 0.0263842 -0.152287)
(-0.0177673 0.000770729 0.00855165 -0.0235781 0.0267737 -0.205729)
(-0.0019499 0.000412473 0.00165931 -0.0249318 0.0293916 -0.203766)
(-0.000234358 8.63003e-05 0.000210807 -0.0252869 0.0299606 -0.203435)
(-2.56376e-05 5.3884e-06 4.08239e-05 -0.025288 0.0299506 -0.203495)
(-3.50522e-06 -4.72885e-06 2.42622e-05 -0.0252438 0.030095 -0.203526)
(-1.79728e-06 -2.8348e-06 3.25189e-05 -0.0252444 0.029918 -0.203504)
(-1.91296e-06 2.23417e-06 1.79608e-05 -0.025282 0.0299928 -0.203529)
(-5.97066e-07 -1.56484e-07 1.37465e-05 -0.0252558 0.0299941 -0.203517)
(5.28716e-08 -2.19979e-06 2.11571e-05 -0.0252849 0.0299825 -0.203503)
(-1.4731e-06 -2.06237e-06 1.23081e-05 -0.0252667 0.0299217 -0.203506)
(-2.2171e-06 3.97296e-06 3.60822e-06 -0.0252824 0.0299828 -0.203512)
(5.7098e-08 4.91829e-06 -2.66767e-06 -0.0252722 0.0300804 -0.203531)
(6.0478e-07 -1.21907e-06 2.24725e-06 -0.0252994 0.0300083 -0.203526)
(-1.00374e-06 -2.14421e-06 7.89708e-07 -0.025277 0.0299862 -0.20352)
(-8.98936e-08 2.53832e-06 -4.51381e-06 -0.0252874 0.0299875 -0.203522)
(8.06332e-07 -3.32964e-07 -8.38691e-07 -0.0253 0.030007 -0.203529)
(-2.55133e-07 -3.44516e-06 1.09075e-06 -0.0252766 0.0299858 -0.203522)
(-1.01428e-06 -1.71636e-06 -3.30869e-06 -0.0252844 0.0299809 -0.203492)
(-1.91999e-06 -1.04037e-07 -7.58717e-06 -0.0252813 0.0299853 -0.203523)
(-1.54621e-06 2.7457e-06 -1.46244e-05 -0.0252817 0.0299909 -0.203519)
(-4.91806e-08 1.87573e-06 -1.75042e-05 -0.0252599 0.0300311 -0.203519)
(-9.67523e-07 -1.15527e-06 -2.54086e-05 -0.0252786 0.0299908 -0.203525)
(-1.4424e-06 -1.00055e-06 -3.05917e-05 -0.0252633 0.0299899 -0.203518)
(-2.83722e-06 2.49364e-06 -2.0595e-05 -0.0252399 0.0300226 -0.203506)
(-2.65943e-05 -4.79603e-06 -3.59584e-05 -0.0253027 0.03001 -0.203504)
(-0.000235968 -8.64212e-05 -0.000212792 -0.0252853 0.0299427 -0.203424)
(-0.00194999 -0.000409603 -0.00166391 -0.0249488 0.0294054 -0.203761)
(-0.0177643 -0.000771852 -0.0085642 -0.0235774 0.0267721 -0.205727)
(-0.0860656 -0.00177649 -0.050357 -0.0220261 0.0263743 -0.152278)
(-0.0887433 0.00139833 0.052118 -0.0139504 0.016467 -0.15126)
(-0.0183642 0.000609167 0.00895286 -0.0148825 0.0163781 -0.206543)
(-0.0020314 0.000319883 0.00181188 -0.0159394 0.0181856 -0.20448)
(-0.000259141 7.37152e-05 0.000233647 -0.0161925 0.0187143 -0.204177)
(-3.1014e-05 7.87209e-06 4.86425e-05 -0.0161812 0.018755 -0.204246)
(-4.00932e-06 -2.50434e-06 3.03377e-05 -0.0161987 0.0188344 -0.204286)
(-1.43855e-06 -3.85933e-06 2.49794e-05 -0.0161536 0.0187604 -0.204265)
(-1.70009e-06 1.53139e-06 2.48824e-05 -0.0161936 0.0187482 -0.204273)
(-1.02538e-06 -1.6708e-06 1.36738e-05 -0.0161861 0.0188192 -0.204284)
(-2.27249e-07 -2.86576e-06 5.45222e-06 -0.0161861 0.0186966 -0.204259)
(-9.99931e-07 -1.63526e-06 1.10607e-05 -0.0161653 0.0187368 -0.204262)
(-1.56934e-06 1.37499e-07 1.09198e-05 -0.0161879 0.0186944 -0.204235)
(1.50104e-08 4.83789e-06 -6.85953e-07 -0.0162056 0.0187057 -0.204261)
(2.15424e-07 8.54555e-07 3.44172e-06 -0.0162059 0.018761 -0.204271)
(-1.03362e-06 -2.54678e-06 9.44355e-07 -0.0161924 0.0187431 -0.204266)
(-1.29408e-07 1.85401e-06 -3.72431e-06 -0.01619 0.0186966 -0.204257)
(4.9736e-07 8.11591e-07 -1.50655e-06 -0.0162059 0.0187594 -0.204272)
(-4.46107e-07 -4.2526e-06 -3.59719e-07 -0.0161918 0.0187438 -0.204269)
(-8.58875e-07 -1.48653e-06 -4.43821e-06 -0.0161894 0.0186944 -0.204237)
(-1.59159e-06 1.34247e-06 -7.6196e-06 -0.0161984 0.0187422 -0.204268)
(-1.21706e-06 2.96189e-06 -2.18546e-05 -0.0162014 0.0187452 -0.204248)
(1.18961e-07 1.88259e-06 -1.62895e-05 -0.0161824 0.018755 -0.204271)
(-1.43484e-06 -4.16582e-07 -8.43998e-06 -0.0161924 0.0187468 -0.204273)
(-1.70122e-06 6.69016e-07 -3.17986e-05 -0.0161834 0.0187723 -0.204252)
(-2.86756e-06 4.27883e-07 -2.82067e-05 -0.0161747 0.0187743 -0.204266)
(-3.19393e-05 -8.26309e-06 -3.63103e-05 -0.016212 0.0187566 -0.204246)
(-0.000260534 -7.23648e-05 -0.000244889 -0.0161881 0.0186554 -0.204135)
(-0.00203099 -0.000316604 -0.00181416 -0.0159479 0.0181945 -0.204496)
(-0.018361 -0.000607719 -0.00895542 -0.0148823 0.0163767 -0.20654)
(-0.0887424 -0.00139738 -0.0521046 -0.0139379 0.0165324 -0.151264)
(-0.0904005 0.000964938 0.0534022 -0.0088207 0.0102389 -0.150981)
(-0.0188005 0.00044824 0.00928363 -0.00929864 0.00999152 -0.207534)
(-0.00209829 0.000237852 0.00192674 -0.0101 0.0113135 -0.20547)
(-0.000278723 5.82879e-05 0.000274557 -0.0103126 0.0116679 -0.205149)
(-3.6332e-05 6.78765e-06 5.1513e-05 -0.01032 0.0117617 -0.205217)
(-4.56908e-06 -1.00193e-06 2.12591e-05 -0.0103373 0.0117191 -0.205249)
(-1.06381e-06 -2.69477e-06 2.47648e-05 -0.0103012 0.0117583 -0.205235)
(-1.75386e-06 -1.38474e-06 2.44486e-05 -0.0103186 0.0116984 -0.205248)
(-9.79803e-07 -2.54178e-07 5.8772e-06 -0.0103282 0.0117068 -0.20525)
(-2.81282e-07 -1.96553e-07 1.25052e-05 -0.0102967 0.0116963 -0.205245)
(-1.36252e-06 -1.76665e-06 9.61994e-06 -0.0103067 0.0117502 -0.205253)
(-7.92734e-07 -1.75244e-06 -3.27834e-06 -0.010302 0.0116941 -0.205235)
(6.00976e-07 2.88391e-06 9.00468e-06 -0.0103028 0.0116622 -0.205231)
(-5.09882e-07 5.2319e-07 1.06993e-05 -0.0103254 0.0117067 -0.205244)
(-1.16899e-06 -9.04756e-07 -6.7117e-06 -0.0103182 0.011695 -0.205242)
(1.88348e-07 1.43858e-06 -2.77231e-06 -0.0102998 0.0116956 -0.205239)
(-8.89426e-08 -3.88753e-07 5.55179e-06 -0.0103253 0.0117052 -0.205245)
(-7.35507e-07 -2.70273e-06 -9.91709e-06 -0.0103176 0.0116957 -0.205244)
(-2.47857e-07 -1.93355e-06 -4.92826e-06 -0.0103036 0.0116934 -0.20524)
(-1.04683e-06 -8.68796e-07 3.57217e-07 -0.0103141 0.0116521 -0.205233)
(-1.07996e-06 4.8135e-06 -1.35535e-05 -0.010321 0.0116577 -0.205217)
(-5.78558e-07 2.99177e-06 -1.49852e-05 -0.0103186 0.0117641 -0.205257)
(-1.78439e-06 -1.32769e-06 -2.38854e-05 -0.0103178 0.0116988 -0.205249)
(-1.16128e-06 2.01938e-06 -3.17047e-05 -0.0103102 0.0117078 -0.205242)
(-3.45769e-06 -1.36287e-06 -1.96053e-05 -0.0103057 0.0117271 -0.205241)
(-3.6785e-05 -8.79635e-06 -4.65301e-05 -0.0103222 0.0116603 -0.20521)
(-0.000279545 -5.41268e-05 -0.000277182 -0.0103007 0.0116592 -0.205114)
(-0.00209818 -0.000235745 -0.00192275 -0.0101055 0.011317 -0.205465)
(-0.0187985 -0.000447781 -0.00928646 -0.00929978 0.00998942 -0.207529)
(-0.0903957 -0.000966237 -0.0533965 -0.0088276 0.0102506 -0.150985)
(-0.0914194 0.00061308 0.0542517 -0.00556882 0.00639945 -0.150956)
(-0.0190869 0.000311231 0.00954638 -0.00576957 0.00614853 -0.208325)
(-0.00214851 0.000172267 0.0020145 -0.0063795 0.00711481 -0.206271)
(-0.000293537 4.17259e-05 0.000286656 -0.006538 0.00732568 -0.205942)
(-3.97919e-05 5.44607e-06 5.37912e-05 -0.00655953 0.00736346 -0.206008)
(-5.15404e-06 1.06648e-06 2.73382e-05 -0.00655821 0.00736581 -0.206043)
(-1.24405e-06 -1.94328e-06 2.30857e-05 -0.00655251 0.00741139 -0.206052)
(-1.43059e-06 -2.09749e-06 1.77628e-05 -0.00654607 0.00735187 -0.206045)
(-8.4354e-07 1.55547e-06 1.30361e-05 -0.00655175 0.00735836 -0.206046)
(-6.63283e-07 -2.65625e-07 1.18382e-05 -0.00653849 0.0074012 -0.20605)
(-1.37118e-06 -2.22772e-06 8.21613e-06 -0.00654982 0.00735575 -0.206044)
(-4.15894e-07 1.39954e-06 -3.03329e-06 -0.00653399 0.00736132 -0.206041)
(6.50709e-07 1.16956e-06 3.47409e-06 -0.00652734 0.00740512 -0.206043)
(-5.34816e-07 -2.37502e-06 1.03985e-05 -0.00654945 0.00735682 -0.206041)
(-1.05173e-06 9.33855e-07 9.55907e-08 -0.00654687 0.00734881 -0.206042)
(-1.22403e-07 1.18366e-06 -1.9792e-06 -0.00653979 0.00739982 -0.206048)
(-3.19892e-07 -1.95691e-06 -1.76486e-06 -0.00654926 0.0073555 -0.206043)
(-7.81332e-07 -1.31922e-06 -3.93501e-06 -0.00654541 0.00734998 -0.206042)
(-4.90392e-07 -4.40693e-07 -1.23454e-05 -0.00653909 0.00735987 -0.206041)
(-3.98385e-07 -1.24783e-06 -1.43062e-05 -0.00652971 0.00734789 -0.206035)
(-2.8226e-07 2.48337e-06 -5.12982e-06 -0.00652618 0.00731342 -0.206031)
(-9.08744e-07 2.31509e-06 -6.32445e-06 -0.00655684 0.00736388 -0.206046)
(-2.11497e-06 8.92473e-07 -1.71544e-05 -0.00654555 0.00735292 -0.206046)
(-1.50336e-06 3.69919e-06 -3.10215e-05 -0.0065459 0.00740911 -0.206052)
(-4.13413e-06 -1.75208e-06 -3.33313e-05 -0.00654169 0.00741752 -0.206044)
(-3.95867e-05 -9.24383e-06 -4.31651e-05 -0.00653392 0.00735334 -0.206011)
(-0.000294091 -4.02267e-05 -0.000280034 -0.00653273 0.00732904 -0.205933)
(-0.00214886 -0.000170903 -0.00201634 -0.00638377 0.0071153 -0.206263)
(-0.0190859 -0.000310676 -0.00955031 -0.0057719 0.0061472 -0.2083)
(-0.091416 -0.000614507 -0.054249 -0.00557312 0.00640852 -0.150961)
(-0.0920467 0.000369984 0.054778 -0.00351598 0.00401515 -0.15098)
(-0.0192623 0.000204729 0.00972353 -0.00357491 0.00381599 -0.208848)
(-0.00218267 0.000122121 0.0020796 -0.00402839 0.00444258 -0.206796)
(-0.000304584 3.07452e-05 0.000301024 -0.00413984 0.00462462 -0.206478)
(-4.23558e-05 4.31113e-06 5.4616e-05 -0.0041575 0.00465302 -0.20656)
(-5.63044e-06 9.24143e-07 2.73538e-05 -0.00415598 0.00465407 -0.20658)
(-1.37961e-06 -1.27891e-06 2.2168e-05 -0.00416118 0.00465847 -0.206586)
(-1.19809e-06 -1.25192e-06 1.76079e-05 -0.00414849 0.00464615 -0.206585)
(-8.05938e-07 8.7464e-07 1.35574e-05 -0.00415147 0.00464955 -0.206583)
(-1.05603e-06 -2.30289e-07 1.17043e-05 -0.00415488 0.00465357 -0.20657)
(-1.08809e-06 -5.82517e-07 1.78743e-07 -0.00415079 0.00465023 -0.206581)
(1.27057e-07 2.36568e-06 3.90383e-06 -0.00413925 0.00465207 -0.206577)
(1.24972e-07 -3.16203e-09 1.1065e-05 -0.00415146 0.00469871 -0.206586)
(-7.28644e-07 -3.41814e-06 2.96177e-06 -0.0041502 0.00464954 -0.20658)
(-6.46567e-07 3.38893e-07 1.54409e-07 -0.00415245 0.00464368 -0.206581)
(-2.93456e-07 1.21613e-06 -1.33806e-06 -0.00415465 0.00465255 -0.206571)
(-6.92275e-07 -1.20576e-06 -2.29847e-06 -0.00414968 0.00464863 -0.206582)
(-5.44897e-07 -1.11235e-06 -1.1046e-05 -0.00414865 0.00464444 -0.206582)
(-1.30065e-07 1.03355e-06 -5.6008e-06 -0.00413641 0.00461608 -0.206557)
(-4.61869e-07 1.7763e-06 -8.03092e-06 -0.00414664 0.00468746 -0.206584)
(-2.24724e-07 5.6129e-07 -1.06944e-05 -0.00412966 0.00469135 -0.206584)
(-9.06249e-07 -7.23794e-07 -5.35843e-06 -0.00415487 0.0046549 -0.206583)
(-1.9198e-06 6.01953e-07 -1.72917e-05 -0.00414812 0.00464759 -0.206585)
(-1.46194e-06 3.72018e-06 -2.31241e-05 -0.00415832 0.00465701 -0.206585)
(-5.39903e-06 2.32667e-07 -2.66616e-05 -0.00416085 0.00470599 -0.206584)
(-4.24004e-05 -8.47148e-06 -6.01153e-05 -0.00414604 0.00469085 -0.206561)
(-0.000304285 -3.18111e-05 -0.000301083 -0.00412929 0.00458812 -0.206463)
(-0.00218285 -0.00012099 -0.00207354 -0.00403118 0.00444121 -0.206787)
(-0.0192624 -0.000203816 -0.00972536 -0.00357569 0.00381317 -0.208843)
(-0.0920456 -0.000370918 -0.0547776 -0.00351662 0.00402174 -0.150983)
(-0.0924324 0.000216917 0.0550916 -0.00222658 0.00251817 -0.151003)
(-0.0193653 0.000130251 0.0098391 -0.00222317 0.00237802 -0.209169)
(-0.00220447 8.46e-05 0.00212631 -0.00254182 0.0027937 -0.207125)
(-0.00031256 2.20154e-05 0.000311674 -0.00262684 0.00292214 -0.206814)
(-4.42643e-05 3.25403e-06 5.70798e-05 -0.00264489 0.00294372 -0.206888)
(-6.03596e-06 1.05894e-06 2.7642e-05 -0.00264019 0.00294334 -0.206919)
(-1.51625e-06 -7.75573e-07 2.1569e-05 -0.0026428 0.00294669 -0.206923)
(-1.09341e-06 -8.28268e-07 1.70313e-05 -0.00263527 0.00293884 -0.206924)
(-7.75079e-07 2.63091e-07 1.35475e-05 -0.00263665 0.00294075 -0.206923)
(-9.54055e-07 -2.02215e-07 1.14832e-05 -0.00263948 0.00294524 -0.206911)
(-9.03717e-07 1.1546e-06 6.73364e-06 -0.00263697 0.00294164 -0.206919)
(-9.25628e-08 1.46721e-06 4.47393e-06 -0.00263661 0.00298401 -0.206922)
(-2.57281e-07 -1.25402e-06 4.45818e-06 -0.0026459 0.00295054 -0.206919)
(-6.37431e-07 -3.0972e-06 2.04195e-06 -0.00263616 0.00294159 -0.206919)
(-2.67708e-07 3.70268e-08 -8.91288e-08 -0.0026322 0.00290217 -0.206915)
(-3.28405e-07 1.80599e-06 -7.83291e-07 -0.00263804 0.00294365 -0.206922)
(-9.14196e-07 -8.94283e-07 -2.49851e-06 -0.00263545 0.00294129 -0.206921)
(-4.56061e-07 1.21195e-06 -1.16159e-05 -0.00263836 0.0029379 -0.206921)
(1.90301e-07 1.36067e-08 -5.35343e-06 -0.0026204 0.00298384 -0.20692)
(-3.79497e-07 2.47145e-07 -8.22582e-07 -0.0026374 0.00290689 -0.206914)
(-6.00525e-07 1.33719e-06 -9.94589e-06 -0.00264135 0.00298539 -0.206925)
(-9.86311e-07 -1.45749e-06 -1.1854e-05 -0.00264003 0.00294425 -0.20692)
(-1.55795e-06 4.25913e-07 -1.7105e-05 -0.00263502 0.00294044 -0.206923)
(-1.48116e-06 2.15464e-06 -2.20452e-05 -0.00264172 0.00294646 -0.206922)
(-6.15488e-06 -8.48159e-08 -2.69226e-05 -0.00265136 0.00295291 -0.206917)
(-4.44724e-05 -4.26757e-06 -6.27041e-05 -0.00264313 0.00294365 -0.206895)
(-0.000311951 -2.32396e-05 -0.000311918 -0.00261954 0.00296146 -0.206806)
(-0.00220449 -8.54793e-05 -0.00211977 -0.00254468 0.00279104 -0.207118)
(-0.0193661 -0.000128955 -0.00984067 -0.00222222 0.0023754 -0.209167)
(-0.0924331 -0.000217325 -0.0550931 -0.00222272 0.00252299 -0.151005)
(-0.0926724 0.000125699 0.0552741 -0.00140795 0.00153213 -0.151014)
(-0.0194244 8.16163e-05 0.00991102 -0.00139483 0.00147881 -0.209361)
(-0.00221788 5.71725e-05 0.00215897 -0.00161377 0.00174808 -0.207327)
(-0.000318207 1.47078e-05 0.000319232 -0.00167743 0.00183753 -0.207021)
(-4.55162e-05 2.28705e-06 5.7111e-05 -0.00168598 0.00181633 -0.207104)
(-6.2928e-06 1.73897e-06 2.82273e-05 -0.00168905 0.00185198 -0.207128)
(-1.71983e-06 -3.83014e-07 2.11679e-05 -0.00168975 0.00185375 -0.207131)
(-1.07105e-06 -5.2285e-07 1.65343e-05 -0.00168528 0.00184969 -0.207133)
(-7.53231e-07 1.0008e-07 1.31211e-05 -0.0016858 0.00185136 -0.207133)
(-8.42162e-07 -2.43716e-07 1.10653e-05 -0.00168651 0.0018537 -0.207133)
(-7.5809e-07 3.38479e-07 7.17485e-06 -0.0016873 0.00185119 -0.207129)
(-2.11734e-07 9.84469e-07 5.15674e-06 -0.00169781 0.00185594 -0.207128)
(-6.54134e-07 -3.1135e-07 4.39414e-06 -0.00169199 0.00185765 -0.207126)
(-5.97287e-07 -1.32585e-06 -5.55287e-06 -0.00168576 0.00185212 -0.207129)
(2.63033e-07 1.16593e-07 -9.45696e-08 -0.00167402 0.00184908 -0.207125)
(-4.09236e-07 6.50129e-07 6.41724e-06 -0.00168599 0.00185427 -0.207131)
(-9.51799e-07 -1.4574e-06 -2.73886e-06 -0.00168492 0.00185246 -0.20713)
(-4.37862e-07 2.02189e-06 -4.94236e-06 -0.00168145 0.00181559 -0.207127)
(-1.65986e-07 1.41516e-06 -1.17806e-05 -0.00168742 0.00189631 -0.207133)
(-1.07559e-07 -2.08269e-06 -7.10303e-06 -0.00167715 0.00185255 -0.207123)
(-4.68131e-07 4.3595e-08 -2.88578e-06 -0.00169117 0.0018242 -0.207125)
(-1.15345e-06 6.6526e-08 -1.21976e-05 -0.00169023 0.00185194 -0.207128)
(-1.39309e-06 4.4346e-07 -1.68965e-05 -0.00168514 0.00185141 -0.207132)
(-1.53813e-06 1.18815e-06 -2.12272e-05 -0.00168949 0.00185414 -0.20713)
(-6.50409e-06 -3.35794e-07 -2.69864e-05 -0.00169473 0.00185797 -0.207125)
(-4.5991e-05 -3.15813e-06 -5.78225e-05 -0.00169191 0.00185217 -0.207102)
(-0.000317727 -1.68426e-05 -0.000320427 -0.00168388 0.00184216 -0.207011)
(-0.00221762 -5.77097e-05 -0.00215917 -0.00161879 0.00174495 -0.207322)
(-0.0194254 -7.90839e-05 -0.00991273 -0.00139387 0.00147693 -0.209361)
(-0.0926704 -0.00012516 -0.0552771 -0.00141226 0.00157352 -0.151022)
(-0.092819 7.22173e-05 0.0553743 -0.000895825 0.000965519 -0.151024)
(-0.019458 4.83966e-05 0.00996423 -0.000890635 0.000907429 -0.209476)
(-0.00222607 3.74497e-05 0.00218106 -0.00104012 0.00107811 -0.207452)
(-0.000322026 1.0922e-05 0.000318251 -0.00108736 0.00113869 -0.207148)
(-4.62026e-05 1.45737e-06 5.78071e-05 -0.00108635 0.00114763 -0.207232)
(-6.4807e-06 4.58947e-07 3.5141e-05 -0.00109832 0.00114685 -0.207257)
(-1.98468e-06 -2.96861e-08 2.09734e-05 -0.00109711 0.00114841 -0.207261)
(-1.05937e-06 -2.66133e-07 1.62355e-05 -0.00109434 0.00114666 -0.207263)
(-7.45199e-07 1.96651e-07 1.31019e-05 -0.00109467 0.00114823 -0.207263)
(-8.49702e-07 -3.58292e-07 1.08367e-05 -0.00109537 0.00115042 -0.207261)
(-6.38973e-07 -8.48379e-07 7.33713e-06 -0.00109726 0.00114671 -0.207258)
(-1.64034e-07 7.90173e-07 5.619e-06 -0.00109638 0.00111679 -0.207253)
(-6.80858e-07 7.68382e-07 4.2194e-06 -0.00109817 0.001151 -0.207256)
(-6.12657e-07 5.39276e-08 6.11006e-07 -0.00109488 0.00114868 -0.207258)
(1.31109e-07 1.27705e-07 1.49731e-07 -0.00109635 0.00118244 -0.207258)
(-6.08247e-07 -2.99835e-07 2.28477e-07 -0.00109633 0.00115027 -0.207257)
(-7.6094e-07 -1.58823e-07 -9.74599e-06 -0.00109454 0.00114955 -0.207258)
(7.0883e-08 1.13547e-06 -4.55415e-06 -0.00108162 0.00114841 -0.207255)
(-4.85644e-07 1.01045e-06 1.67505e-06 -0.00110304 0.00115672 -0.207258)
(-5.76325e-07 -5.11286e-07 -1.38264e-05 -0.00109766 0.00118464 -0.207257)
(-1.50605e-07 -1.34342e-06 -9.48032e-06 -0.00108685 0.00115371 -0.207252)
(-9.57897e-07 -6.51605e-07 -5.7925e-06 -0.00110123 0.00114693 -0.207257)
(-1.42315e-06 6.16428e-07 -1.66091e-05 -0.00109425 0.00114857 -0.207261)
(-1.63425e-06 5.85644e-07 -2.08307e-05 -0.00109746 0.00114886 -0.207259)
(-6.96368e-06 -6.46924e-07 -2.71974e-05 -0.0010998 0.0011507 -0.207254)
(-4.71378e-05 -2.63568e-06 -6.5605e-05 -0.0011019 0.00114641 -0.207231)
(-0.000321245 -1.21084e-05 -0.000326594 -0.00108205 0.0011074 -0.207133)
(-0.00222516 -3.75047e-05 -0.00217491 -0.00103692 0.0010415 -0.207443)
(-0.0194591 -4.65699e-05 -0.00995598 -0.000890254 0.000906927 -0.209476)
(-0.0928148 -7.1061e-05 -0.0553827 -0.000908919 0.000965302 -0.151034)
(-0.0929003 4.05138e-05 0.0554417 -0.000606713 0.000609856 -0.15104)
(-0.0194774 2.69906e-05 0.00997964 -0.00058972 0.000534941 -0.209544)
(-0.00223013 2.32717e-05 0.00219546 -0.000693884 0.000639002 -0.207527)
(-0.000324528 7.78528e-06 0.00032911 -0.000730585 0.000677924 -0.207224)
(-4.7217e-05 3.73473e-07 5.90853e-05 -0.000741752 0.000716534 -0.207303)
(-6.55346e-06 -3.16887e-07 2.84699e-05 -0.000741649 0.000681046 -0.207336)
(-1.90387e-06 4.38785e-07 2.10125e-05 -0.000737183 0.000682742 -0.207339)
(-1.06908e-06 -8.06734e-08 1.61125e-05 -0.000735517 0.00068235 -0.207341)
(-7.69886e-07 5.26232e-08 1.32723e-05 -0.000735921 0.000683608 -0.207341)
(-9.99952e-07 -6.71618e-07 1.07207e-05 -0.000737659 0.000684952 -0.20733)
(-5.09077e-07 2.22636e-07 5.81534e-07 -0.000740797 0.000681522 -0.207337)
(1.25374e-07 9.12327e-07 6.03007e-06 -0.000726426 0.000685332 -0.20733)
(-8.0823e-07 -1.86167e-07 1.07945e-05 -0.000737459 0.000685081 -0.207335)
(-7.47102e-07 -1.11864e-06 4.15333e-07 -0.000736046 0.000684005 -0.207337)
(2.24727e-07 -1.47047e-07 3.66611e-07 -0.000739021 0.000649896 -0.207333)
(-4.58104e-07 9.50226e-07 5.05667e-07 -0.000739004 0.000684078 -0.207326)
(-7.35754e-07 1.41021e-06 -3.12269e-06 -0.000736722 0.000684878 -0.207327)
(-2.16573e-07 7.75036e-07 -4.14849e-06 -0.000733081 0.000719992 -0.207338)
(-4.24635e-07 -1.61763e-06 -4.90293e-06 -0.000741493 0.000689166 -0.207334)
(-5.29214e-07 9.29377e-07 -7.30529e-06 -0.000739158 0.000651719 -0.207332)
(-4.77154e-07 -8.1741e-07 -9.67999e-06 -0.000736043 0.000722985 -0.207334)
(-8.0492e-07 -1.61994e-06 -1.26523e-05 -0.000734816 0.000648028 -0.207333)
(-1.19098e-06 1.1588e-06 -1.64588e-05 -0.000736079 0.000684414 -0.207338)
(-1.78898e-06 2.14348e-07 -2.07538e-05 -0.000738316 0.000682763 -0.207338)
(-7.14704e-06 -1.25391e-06 -2.74036e-05 -0.000738535 0.000684159 -0.207333)
(-4.79258e-05 3.54451e-08 -6.63183e-05 -0.000734843 0.000647357 -0.207306)
(-0.000323798 -5.89487e-06 -0.000337836 -0.000719737 0.000714555 -0.207214)
(-0.00222922 -2.504e-05 -0.00218951 -0.000680762 0.000637939 -0.207518)
(-0.0194776 -2.75471e-05 -0.00997404 -0.000590621 0.000534573 -0.209542)
(-0.0929004 -3.99129e-05 -0.0554383 -0.000604283 0.000571963 -0.151044)
(-0.0929488 2.09034e-05 0.0554754 -0.000435711 0.000262947 -0.151044)
(-0.0194878 1.54081e-05 0.00999407 -0.000420397 0.000279903 -0.209584)
(-0.00223253 1.25291e-05 0.00220415 -0.000498415 0.000336014 -0.207569)
(-0.000326127 2.67947e-06 0.000332831 -0.000528825 0.000357116 -0.207258)
(-4.76129e-05 -6.50329e-07 5.79244e-05 -0.000539774 0.000324466 -0.207356)
(-6.42891e-06 1.38469e-06 2.88911e-05 -0.000529746 0.00032448 -0.207378)
(-1.98169e-06 1.23069e-06 2.12086e-05 -0.000532771 0.000359536 -0.207384)
(-1.17262e-06 2.73968e-08 1.60967e-05 -0.000531938 0.00035981 -0.207386)
(-8.62187e-07 -1.19433e-07 1.29899e-05 -0.000532419 0.000360682 -0.207385)
(-7.73791e-07 -1.33794e-06 1.01353e-05 -0.000533053 0.000359815 -0.207384)
(-2.99291e-07 1.37988e-06 7.66489e-06 -0.000529593 0.000325342 -0.207379)
(-2.38979e-07 1.46597e-06 6.45306e-06 -0.000531988 0.00039659 -0.207378)
(-1.10167e-06 -1.18208e-06 4.01651e-06 -0.000534223 0.000362164 -0.207379)
(-6.25704e-07 -2.74864e-07 -6.48595e-06 -0.000532337 0.000361129 -0.207381)
(5.67098e-07 -4.87027e-07 -8.10696e-08 -0.000524607 0.000360518 -0.207377)
(-2.81864e-07 7.64333e-08 7.22684e-06 -0.000535352 0.000357912 -0.207381)
(-8.13656e-07 1.05666e-06 -2.43623e-06 -0.000533282 0.000360753 -0.207381)
(-5.32468e-07 4.55726e-07 -3.48704e-06 -0.000538205 0.000363164 -0.207382)
(-4.4603e-07 -1.60556e-07 -1.14804e-05 -0.000536431 0.000362633 -0.20737)
(-4.03073e-07 4.35897e-07 -7.18227e-06 -0.000523464 0.000362674 -0.207375)
(-6.36205e-07 -6.04307e-07 -1.01869e-05 -0.000539949 0.00036424 -0.20737)