/*--------------------------------*- C++ -*----------------------------------*\
| =========                 |                                                 |
| \\      /  F ield         | OpenFOAM: The Open Source CFD Toolbox           |
|  \\    /   O peration     | Version:  2106                                  |
|   \\  /    A nd           | Website:  www.openfoam.com                      |
|    \\/     M anipulation  |                                                 |
\*---------------------------------------------------------------------------*/
FoamFile
{
    version     2.0;
    format      ascii;
    arch        "LSB;label=32;scalar=64";
    class       volSymmTensorField;
    location    "661";
    object      sigma;
}
// * * * * * * * * * * * * * * * * * * * * * * * * * * * * * * * * * * * * * //

dimensions      [1 -1 -2 0 0 0 0];

internalField   nonuniform List<symmTensor> 
9000
(
(5.39357e+07 -135950 2.48453e+07 2.21919e+07 3.16779e+07 8.49959e+07)
(9.63408e+07 277429 4.84096e+06 2.4274e+07 3.35974e+07 6.90112e+07)
(1.10954e+08 173196 1.3238e+06 2.61169e+07 3.56751e+07 8.12458e+07)
(1.12754e+08 26116.5 233278 2.62567e+07 3.61335e+07 8.33112e+07)
(1.1297e+08 -4098.99 20822.6 2.62935e+07 3.61472e+07 8.33836e+07)
(1.12978e+08 -1058.72 9358.01 2.63689e+07 3.6038e+07 8.32238e+07)
(1.12976e+08 -16.7509 13312.6 2.63016e+07 3.61224e+07 8.328e+07)
(1.12985e+08 -3051.35 4069.14 2.63777e+07 3.60387e+07 8.3229e+07)
(1.12982e+08 3328.61 16169.2 2.6376e+07 3.6037e+07 8.32225e+07)
(1.12997e+08 3421.94 -3817.77 2.63038e+07 3.61337e+07 8.33528e+07)
(1.13002e+08 -3229.38 -25278 2.63652e+07 3.60733e+07 8.32879e+07)
(1.12981e+08 -277.28 20476.8 2.64348e+07 3.5975e+07 8.31404e+07)
(1.12991e+08 2811.66 30357.6 2.63026e+07 3.61276e+07 8.33318e+07)
(1.12989e+08 426.891 -15590.4 2.62914e+07 3.61322e+07 8.33352e+07)
(1.13005e+08 444.719 955.019 2.63613e+07 3.60779e+07 8.32986e+07)
(1.12999e+08 -612.956 15723.6 2.63025e+07 3.61347e+07 8.33521e+07)
(1.12989e+08 174.145 -18722.8 2.62917e+07 3.61317e+07 8.33321e+07)
(1.13004e+08 390.23 -1584 2.63601e+07 3.6079e+07 8.33036e+07)
(1.12998e+08 -3437.68 -12752.8 2.63068e+07 3.61303e+07 8.33432e+07)
(1.12988e+08 -3288.79 -13731.3 2.6438e+07 3.59798e+07 8.31681e+07)
(1.1298e+08 3000.33 20452.9 2.63787e+07 3.60335e+07 8.32055e+07)
(1.12991e+08 3370.52 3438.9 2.62986e+07 3.61304e+07 8.33394e+07)
(1.13e+08 -3034.31 -16609.2 2.63032e+07 3.6135e+07 8.33555e+07)
(1.12986e+08 -418.844 -13831.6 2.63727e+07 3.60409e+07 8.32369e+07)
(1.12989e+08 854.85 -12711.9 2.6301e+07 3.61275e+07 8.33329e+07)
(1.12958e+08 1001 -48363 2.6366e+07 3.60539e+07 8.3269e+07)
(1.12755e+08 -23565.3 -227261 2.63208e+07 3.60691e+07 8.3235e+07)
(1.10943e+08 -173083 -1.30437e+06 2.61092e+07 3.56692e+07 8.12221e+07)
(9.63382e+07 -276943 -4.84012e+06 2.42737e+07 3.35969e+07 6.90093e+07)
(5.39342e+07 135913 -2.48458e+07 2.21903e+07 3.16756e+07 8.49912e+07)
(4.17512e+07 -5822.25 2.3977e+07 2.85098e+07 3.51731e+07 1.25606e+07)
(7.28745e+07 352082 4.13994e+06 2.8098e+07 3.70122e+07 -8.94511e+06)
(8.60172e+07 223198 795967 3.05974e+07 3.93263e+07 -1.43101e+06)
(8.73505e+07 36603.6 118690 3.05058e+07 3.99235e+07 -568698)
(8.74935e+07 -3261.64 16970.5 3.05449e+07 3.99405e+07 -541995)
(8.76097e+07 -1683.28 16376.4 3.07628e+07 3.99061e+07 -445426)
(8.75303e+07 262.618 13454.7 3.0596e+07 3.99119e+07 -531681)
(8.76249e+07 -884.092 -1314.89 3.07888e+07 3.99086e+07 -430158)
(8.76222e+07 1064.64 17670.7 3.07851e+07 3.9905e+07 -436539)
(8.75213e+07 3727.83 17467.1 3.05736e+07 3.99186e+07 -539499)
(8.75805e+07 1716.87 -5906.98 3.0683e+07 4.00089e+07 -465339)
(8.76869e+07 -3034.91 2213.09 3.09029e+07 3.99906e+07 -353825)
(8.75205e+07 -3605.59 12224.3 3.05735e+07 3.99096e+07 -542059)
(8.75401e+07 3252.99 911.838 3.06048e+07 3.98399e+07 -512768)
(8.7574e+07 1935.15 -755.097 3.06698e+07 4.00159e+07 -473690)
(8.75191e+07 -4651.32 -1057.93 3.05694e+07 3.9921e+07 -543966)
(8.75403e+07 2664.21 -407.281 3.06056e+07 3.98394e+07 -513984)
(8.7574e+07 1964.15 -1763.93 3.06677e+07 4.00165e+07 -471162)
(8.75247e+07 -1107.71 -12668.6 3.05821e+07 3.99137e+07 -538166)
(8.76832e+07 -990.947 -14381.5 3.08957e+07 4.00012e+07 -356419)
(8.76348e+07 -2144.05 2417.6 3.08059e+07 3.98986e+07 -417831)
(8.75138e+07 990.548 2518.7 3.05606e+07 3.99134e+07 -550375)
(8.75196e+07 -561.528 -19476.5 3.05707e+07 3.99212e+07 -541946)
(8.76181e+07 -898.067 -11955.5 3.0773e+07 3.991e+07 -435677)
(8.75141e+07 1764.43 -15191.5 3.05668e+07 3.99083e+07 -546591)
(8.75958e+07 5122.84 -26505.5 3.07549e+07 3.99319e+07 -431383)
(8.7416e+07 -37893.3 -108182 3.06286e+07 4.00077e+07 -487356)
(8.60342e+07 -225766 -796992 3.06331e+07 3.92437e+07 -1.41324e+06)
(7.28759e+07 -350360 -4.1413e+06 2.81003e+07 3.70112e+07 -8.94294e+06)
(4.17503e+07 5809.92 -2.39773e+07 2.85065e+07 3.51679e+07 1.25588e+07)
(4.53338e+07 604964 2.41147e+07 5.50068e+07 3.00054e+07 5.56109e+06)
(8.0097e+07 449531 4.05733e+06 5.75571e+07 3.12855e+07 -1.55659e+07)
(9.39294e+07 267994 705894 6.21721e+07 3.33853e+07 -8.27549e+06)
(9.53064e+07 50664.2 87605.5 6.23348e+07 3.39924e+07 -7.57774e+06)
(9.54417e+07 -456.001 29198.2 6.23825e+07 3.40147e+07 -7.55999e+06)
(9.55219e+07 -2658.24 18132.7 6.251e+07 3.40712e+07 -7.46657e+06)
(9.54673e+07 1127.26 12995.1 6.24148e+07 3.39831e+07 -7.54765e+06)
(9.55183e+07 2312.67 11423.8 6.25085e+07 3.41215e+07 -7.48127e+06)
(9.55135e+07 -1474.18 4105.11 6.24989e+07 3.41177e+07 -7.48854e+06)
(9.54671e+07 -1430.62 4806.1 6.24117e+07 3.39941e+07 -7.55211e+06)
(9.54769e+07 1665.56 9544.17 6.24285e+07 3.39811e+07 -7.53408e+06)
(9.55322e+07 -1390.49 2422.76 6.25306e+07 3.41083e+07 -7.45747e+06)
(9.54955e+07 -1777.34 -10322.5 6.24515e+07 3.39373e+07 -7.49981e+06)
(9.55072e+07 1981.84 287.662 6.24871e+07 3.39956e+07 -7.5026e+06)
(9.54726e+07 268.31 6228.63 6.24218e+07 3.39894e+07 -7.54021e+06)
(9.54644e+07 -551.667 -8771.48 6.24089e+07 3.39972e+07 -7.55465e+06)
(9.55057e+07 237.754 112.784 6.2486e+07 3.39949e+07 -7.50544e+06)
(9.54729e+07 148.172 5986.09 6.24203e+07 3.39891e+07 -7.54048e+06)
(9.54689e+07 1205.58 1492.59 6.24176e+07 3.3989e+07 -7.54887e+06)
(9.55288e+07 1446.68 -438.361 6.25249e+07 3.41109e+07 -7.46329e+06)
(9.55268e+07 -2848.3 -11059.5 6.25221e+07 3.41184e+07 -7.46744e+06)
(9.54796e+07 -1315.39 -12081 6.24291e+07 3.39419e+07 -7.53003e+06)
(9.54653e+07 2627.5 -6757.83 6.24105e+07 3.39976e+07 -7.55401e+06)
(9.55094e+07 -2050.16 -10965.6 6.24898e+07 3.41213e+07 -7.49024e+06)
(9.54758e+07 2085.47 -15591.2 6.24258e+07 3.39367e+07 -7.52765e+06)
(9.5494e+07 2391.3 -24015.1 6.2477e+07 3.41426e+07 -7.48749e+06)
(9.53229e+07 -52800.5 -97646.3 6.23643e+07 3.39731e+07 -7.55086e+06)
(9.39694e+07 -267858 -709434 6.22493e+07 3.33752e+07 -8.22958e+06)
(8.01005e+07 -449810 -4.05191e+06 5.75611e+07 3.12846e+07 -1.55614e+07)
(4.53317e+07 -604852 -2.41145e+07 5.49984e+07 2.99988e+07 5.55673e+06)
(4.97612e+07 936523 2.49518e+07 7.3858e+07 2.11035e+07 1.24046e+07)
(8.85267e+07 454077 4.19799e+06 7.81319e+07 2.18038e+07 -8.60793e+06)
(1.03358e+08 255320 767639 8.41468e+07 2.35276e+07 -653441)
(1.04869e+08 51813.7 98224 8.45314e+07 2.39808e+07 150677)
(1.05016e+08 -396.035 21545.4 8.45776e+07 2.40047e+07 167804)
(1.05074e+08 -3483.76 18411.5 8.46577e+07 2.39514e+07 234102)
(1.05051e+08 655.322 17360.1 8.46217e+07 2.3945e+07 195947)
(1.05033e+08 795.073 9857.49 8.45949e+07 2.39885e+07 166528)
(1.05054e+08 257.962 6455.02 8.46183e+07 2.39506e+07 206607)
(1.05043e+08 175.754 6036.95 8.46065e+07 2.39884e+07 177464)
(1.05045e+08 -1021.27 7597.99 8.46121e+07 2.39815e+07 182414)
(1.05051e+08 390.73 -2364.63 8.46174e+07 2.3977e+07 201767)
(1.05073e+08 3065.69 -1874.78 8.46603e+07 2.39888e+07 218401)
(1.05052e+08 531.563 5373.38 8.46281e+07 2.40738e+07 183645)
(1.05044e+08 -1794.84 -382.83 8.4613e+07 2.39888e+07 180789)
(1.0504e+08 2113.39 -1961.08 8.46034e+07 2.39917e+07 173346)
(1.0505e+08 -314.183 -102.112 8.46257e+07 2.40731e+07 179825)
(1.05045e+08 -2181.78 -113.557 8.46129e+07 2.39886e+07 180313)
(1.05053e+08 -806.581 -701.309 8.46193e+07 2.39837e+07 200313)
(1.05039e+08 -386.469 -2921.59 8.46039e+07 2.39825e+07 175921)
(1.05047e+08 576.568 -13568.9 8.4611e+07 2.39833e+07 193633)
(1.05072e+08 811.356 -10245.8 8.46534e+07 2.39857e+07 220958)
(1.05041e+08 -652.331 -3596.91 8.46065e+07 2.39929e+07 174124)
(1.05041e+08 -1982.39 -15805.7 8.4603e+07 2.39527e+07 182577)
(1.05081e+08 2506.7 -15829.1 8.4668e+07 2.39464e+07 245034)
(1.05013e+08 100.992 -18248.3 8.45714e+07 2.4004e+07 167423)
(1.04878e+08 -50392.9 -99070.3 8.45483e+07 2.39676e+07 165807)
(1.03381e+08 -254063 -771558 8.41822e+07 2.36011e+07 -616742)
(8.85306e+07 -456839 -4.19988e+06 7.81356e+07 2.18031e+07 -8.6036e+06)
(4.97679e+07 -936161 -2.49508e+07 7.38718e+07 2.10639e+07 1.24209e+07)
(5.26187e+07 917443 2.59838e+07 8.56343e+07 1.36106e+07 1.84541e+07)
(9.396e+07 397590 4.41148e+06 9.09625e+07 1.38116e+07 -3.00221e+06)
(1.09652e+08 212779 855977 9.77961e+07 1.5162e+07 5.54195e+06)
(1.11312e+08 44519.1 108748 9.83888e+07 1.54555e+07 6.48893e+06)
(1.11488e+08 2779.67 21059.5 9.84559e+07 1.54504e+07 6.52562e+06)
(1.11515e+08 -2439.44 12516 9.84947e+07 1.55249e+07 6.52543e+06)
(1.11527e+08 -1462.37 16775.3 9.85051e+07 1.54336e+07 6.54756e+06)
(1.11498e+08 1152.53 9265.3 9.84571e+07 1.54722e+07 6.50631e+06)
(1.11517e+08 -80.7243 7091.3 9.84888e+07 1.54728e+07 6.53066e+06)
(1.1151e+08 -1134.79 10914.1 9.8467e+07 1.54668e+07 6.53081e+06)
(1.11516e+08 -1063.9 6349.3 9.84824e+07 1.54355e+07 6.53514e+06)
(1.11506e+08 2049.5 1861.35 9.84644e+07 1.5467e+07 6.5226e+06)
(1.11504e+08 2537.16 -1376.15 9.84666e+07 1.55174e+07 6.5098e+06)
(1.11494e+08 -628.87 1159.27 9.84423e+07 1.54802e+07 6.50171e+06)
(1.11505e+08 -1106.12 407.381 9.84662e+07 1.54687e+07 6.51704e+06)
(1.11501e+08 1309.42 -2328.51 9.8456e+07 1.54695e+07 6.51155e+06)
(1.11492e+08 -171.764 -432.649 9.84405e+07 1.54795e+07 6.4986e+06)
(1.11505e+08 -1777.23 562.679 9.84662e+07 1.54686e+07 6.51607e+06)
(1.11515e+08 -885.406 -1706.83 9.84718e+07 1.5466e+07 6.5409e+06)
(1.11501e+08 -53.669 -3913.94 9.84602e+07 1.54683e+07 6.5117e+06)
(1.11503e+08 1416.4 -7544.16 9.84622e+07 1.54712e+07 6.51645e+06)
(1.11514e+08 967.622 -9029.76 9.84838e+07 1.5492e+07 6.5265e+06)
(1.11502e+08 -595.961 -13107.3 9.84624e+07 1.54711e+07 6.51144e+06)
(1.11512e+08 -516.146 -15781.1 9.84805e+07 1.54707e+07 6.52559e+06)
(1.11527e+08 1286.37 -10624.2 9.85081e+07 1.54875e+07 6.54709e+06)
(1.11476e+08 -2474.09 -18549.6 9.84371e+07 1.5481e+07 6.50981e+06)
(1.11317e+08 -44581.5 -109771 9.83948e+07 1.54463e+07 6.49991e+06)
(1.09646e+08 -211299 -858351 9.77818e+07 1.51692e+07 5.53904e+06)
(9.39639e+07 -398170 -4.41795e+06 9.09651e+07 1.38108e+07 -2.99916e+06)
(5.26309e+07 -916423 -2.59773e+07 8.56665e+07 1.36055e+07 1.84746e+07)
(5.41913e+07 721344 2.68857e+07 9.27742e+07 8.49471e+06 2.1941e+07)
(9.69924e+07 314246 4.61845e+06 9.87885e+07 8.44884e+06 -81810.2)
(1.13369e+08 165016 934680 1.06194e+08 9.38129e+06 8.93308e+06)
(1.15118e+08 38026.9 120530 1.06899e+08 9.65399e+06 9.92485e+06)
(1.15314e+08 4060.92 25092.9 1.06983e+08 9.67503e+06 9.96683e+06)
(1.15314e+08 -1291.9 15650.1 1.0696e+08 9.71596e+06 9.93287e+06)
(1.15347e+08 -1990.88 12885.9 1.07014e+08 9.67778e+06 9.97467e+06)
(1.15324e+08 789.987 12835.9 1.06972e+08 9.67148e+06 9.94853e+06)
(1.15323e+08 -861.901 7053.81 1.06974e+08 9.7081e+06 9.94126e+06)
(1.15336e+08 -1478.34 2812.6 1.06986e+08 9.64487e+06 9.96647e+06)
(1.15343e+08 -843.568 5705.81 1.07004e+08 9.66564e+06 9.9722e+06)
(1.15344e+08 70.9304 5633.14 1.06995e+08 9.64376e+06 9.98784e+06)
(1.15326e+08 2495.69 -353.857 1.06966e+08 9.64956e+06 9.95583e+06)
(1.15322e+08 440.833 1775.46 1.06962e+08 9.67812e+06 9.94589e+06)
(1.15329e+08 -1313.79 487.158 1.06976e+08 9.66885e+06 9.95592e+06)
(1.15335e+08 956.415 -1921.23 1.06983e+08 9.64487e+06 9.96623e+06)
(1.15321e+08 418.67 -777.175 1.06961e+08 9.67726e+06 9.94443e+06)
(1.15329e+08 -2193.76 -185.566 1.06976e+08 9.66921e+06 9.95416e+06)
(1.15344e+08 -766.845 -2289.51 1.06993e+08 9.64375e+06 9.98629e+06)
(1.15325e+08 692.528 -3930.67 1.0697e+08 9.6684e+06 9.95158e+06)
(1.15333e+08 1527.93 -11274 1.06976e+08 9.66994e+06 9.96919e+06)
(1.15332e+08 971.156 -8403.15 1.06984e+08 9.675e+06 9.95664e+06)
(1.15325e+08 -214.899 -4353.87 1.06973e+08 9.67079e+06 9.94913e+06)
(1.15339e+08 345.12 -16403.7 1.06991e+08 9.68391e+06 9.97397e+06)
(1.15335e+08 220.729 -14550.8 1.06993e+08 9.68498e+06 9.96366e+06)
(1.15299e+08 -4262.62 -18731.1 1.06952e+08 9.67584e+06 9.95259e+06)
(1.15138e+08 -37330.3 -126329 1.06922e+08 9.62364e+06 9.96686e+06)
(1.13357e+08 -163324 -935859 1.06178e+08 9.38589e+06 8.91323e+06)
(9.6997e+07 -313499 -4.61977e+06 9.87915e+07 8.44811e+06 -77424.9)
(5.41963e+07 -720855 -2.68788e+07 9.27851e+07 8.52846e+06 2.19437e+07)
(5.50569e+07 497775 2.75482e+07 9.71409e+07 5.28186e+06 2.38058e+07)
(9.8673e+07 231230 4.78908e+06 1.03575e+08 5.15425e+06 1.31223e+06)
(1.15527e+08 122699 993933 1.11399e+08 5.83624e+06 1.06147e+07)
(1.1735e+08 30068.5 141634 1.12174e+08 6.01903e+06 1.16651e+07)
(1.17551e+08 3501.49 26573.7 1.12246e+08 6.0674e+06 1.17063e+07)
(1.1756e+08 -516.86 10966.8 1.12229e+08 6.04545e+06 1.16818e+07)
(1.17586e+08 -1390.13 12775.2 1.12272e+08 6.06567e+06 1.1713e+07)
(1.17571e+08 -714.338 12612.1 1.12249e+08 6.03477e+06 1.16927e+07)
(1.17567e+08 -131.121 3031.83 1.12239e+08 6.03909e+06 1.16861e+07)
(1.17584e+08 -101.394 6450.99 1.12273e+08 6.03367e+06 1.17064e+07)
(1.17575e+08 -911.352 4962.57 1.12259e+08 6.0615e+06 1.16933e+07)
(1.17586e+08 -904.02 -1691.17 1.12272e+08 6.03255e+06 1.17129e+07)
(1.17589e+08 1487.7 4645.18 1.12274e+08 6.01611e+06 1.17174e+07)
(1.17571e+08 269.894 5519.35 1.12245e+08 6.03903e+06 1.16939e+07)
(1.17575e+08 -466.73 -3462.32 1.12252e+08 6.03299e+06 1.16983e+07)
(1.17586e+08 742.108 -1430.13 1.12272e+08 6.03331e+06 1.17105e+07)
(1.17571e+08 -200.543 2863.96 1.12245e+08 6.03827e+06 1.16931e+07)
(1.17575e+08 -1394.24 -5115.86 1.12253e+08 6.03338e+06 1.16973e+07)
(1.17583e+08 -997.448 -2542.3 1.12268e+08 6.03221e+06 1.17074e+07)
(1.17581e+08 -448.179 184.275 1.12261e+08 6.01086e+06 1.17091e+07)
(1.17585e+08 2483.1 -6991.72 1.12262e+08 6.01375e+06 1.17221e+07)
(1.17568e+08 1543.34 -7730.29 1.12245e+08 6.06867e+06 1.16838e+07)
(1.17571e+08 -684.904 -12321.6 1.1225e+08 6.03496e+06 1.16919e+07)
(1.17579e+08 1041.73 -16355.3 1.12261e+08 6.03963e+06 1.17027e+07)
(1.17579e+08 -703.056 -10113.7 1.12264e+08 6.04959e+06 1.17039e+07)
(1.17553e+08 -4537.71 -24003.1 1.12247e+08 6.01513e+06 1.17113e+07)
(1.1737e+08 -27922 -142988 1.12201e+08 6.01455e+06 1.17034e+07)
(1.15527e+08 -121612 -991875 1.11396e+08 5.83803e+06 1.06172e+07)
(9.8677e+07 -230993 -4.79054e+06 1.03577e+08 5.15317e+06 1.31806e+06)
(5.50564e+07 -498446 -2.75453e+07 9.71344e+07 5.28793e+06 2.38006e+07)
(5.55665e+07 316265 2.79864e+07 9.98536e+07 3.30124e+06 2.48537e+07)
(9.96494e+07 160552 4.92462e+06 1.06519e+08 3.1718e+06 2.02826e+06)
(1.16817e+08 88866.3 1.03921e+06 1.14634e+08 3.67026e+06 1.15175e+07)
(1.18702e+08 21524.8 147875 1.15481e+08 3.77904e+06 1.2616e+07)
(1.18909e+08 2809.43 27748.9 1.15546e+08 3.79854e+06 1.26578e+07)
(1.18928e+08 550.159 14102.8 1.15548e+08 3.79975e+06 1.2641e+07)
(1.1893e+08 -1002.47 11909 1.1555e+08 3.82326e+06 1.26358e+07)
(1.18936e+08 -1082.02 9163.16 1.1556e+08 3.79256e+06 1.26456e+07)
(1.18934e+08 802.407 6724.84 1.15554e+08 3.79591e+06 1.26426e+07)
(1.18938e+08 -137.026 6106.88 1.15565e+08 3.818e+06 1.26443e+07)
(1.18935e+08 -1149.2 4238.4 1.15557e+08 3.79456e+06 1.26453e+07)
(1.18945e+08 721.969 -1564.76 1.15574e+08 3.79743e+06 1.26562e+07)
(1.18948e+08 603.331 1792.15 1.1558e+08 3.82003e+06 1.26575e+07)
(1.18937e+08 -1225.18 5364.18 1.15559e+08 3.79511e+06 1.26487e+07)
(1.18938e+08 481.741 49.3117 1.15561e+08 3.79098e+06 1.2649e+07)
(1.18939e+08 610.605 -1021 1.15565e+08 3.81729e+06 1.26465e+07)
(1.18937e+08 -1009.5 -910.425 1.15558e+08 3.79443e+06 1.2647e+07)
(1.18938e+08 -680.537 -2029.92 1.15562e+08 3.79158e+06 1.26496e+07)
(1.18942e+08 -227.337 -6368.53 1.15569e+08 3.79668e+06 1.2653e+07)
(1.18949e+08 -643.71 -7380.01 1.15581e+08 3.7905e+06 1.26633e+07)
(1.18952e+08 1281.08 -2646.28 1.15586e+08 3.77272e+06 1.26686e+07)
(1.18931e+08 1194.27 -3262.55 1.15549e+08 3.79875e+06 1.26399e+07)
(1.18935e+08 460.394 -8849.31 1.1556e+08 3.7931e+06 1.26445e+07)
(1.18933e+08 1908.28 -16002.8 1.15557e+08 3.82209e+06 1.26389e+07)
(1.18936e+08 -903.832 -17194.4 1.15563e+08 3.82642e+06 1.26478e+07)
(1.1892e+08 -4768.55 -22267.3 1.1557e+08 3.79331e+06 1.26667e+07)
(1.18708e+08 -20751.5 -144459 1.1549e+08 3.78078e+06 1.26264e+07)
(1.16818e+08 -88162.3 -1.04016e+06 1.14634e+08 3.67052e+06 1.15235e+07)
(9.96608e+07 -160266 -4.92665e+06 1.06529e+08 3.17111e+06 2.05207e+06)
(5.55657e+07 -317001 -2.7985e+07 9.98489e+07 3.30592e+06 2.48488e+07)
(5.58855e+07 190861 2.82579e+07 1.01555e+08 2.07127e+06 2.5484e+07)
(1.00245e+08 105612 5.01601e+06 1.08338e+08 1.96853e+06 2.44461e+06)
(1.17621e+08 62997.5 1.07279e+06 1.16669e+08 2.29176e+06 1.20687e+07)
(1.19545e+08 15860.3 155287 1.17567e+08 2.38567e+06 1.31883e+07)
(1.19755e+08 2223.95 28174.4 1.17632e+08 2.40032e+06 1.32203e+07)
(1.19782e+08 476.731 14110.8 1.17641e+08 2.40086e+06 1.32183e+07)
(1.19782e+08 -659.74 11435.7 1.17636e+08 2.40313e+06 1.32122e+07)
(1.19788e+08 -645.82 9083.25 1.17649e+08 2.39678e+06 1.32196e+07)
(1.19788e+08 451.194 6993.76 1.17647e+08 2.39853e+06 1.32195e+07)
(1.19792e+08 -118.797 6037.8 1.17649e+08 2.40061e+06 1.32309e+07)
(1.19789e+08 -300.499 92.2071 1.17648e+08 2.39888e+06 1.32219e+07)
(1.19797e+08 1220.37 2013.84 1.17662e+08 2.39983e+06 1.32313e+07)
(1.19788e+08 -1.63117 5708.04 1.17646e+08 2.42389e+06 1.32175e+07)
(1.1979e+08 -1763.29 1527.87 1.17649e+08 2.39852e+06 1.32231e+07)
(1.19788e+08 174.822 79.6539 1.17647e+08 2.3955e+06 1.32212e+07)
(1.19793e+08 627.355 -690.256 1.1765e+08 2.40008e+06 1.32307e+07)
(1.19789e+08 -622.007 -1185.7 1.17649e+08 2.39805e+06 1.32213e+07)
(1.1979e+08 -573.819 -5698.24 1.1765e+08 2.39589e+06 1.32225e+07)
(1.19807e+08 533.169 -2889.25 1.17674e+08 2.38126e+06 1.3252e+07)
(1.1979e+08 916.326 -4142.85 1.17651e+08 2.41809e+06 1.32216e+07)
(1.19798e+08 289.549 -5516.82 1.17668e+08 2.42009e+06 1.3229e+07)
(1.19786e+08 -373.379 -2764.22 1.17644e+08 2.40129e+06 1.32186e+07)
(1.19788e+08 310.525 -8920.16 1.17649e+08 2.39752e+06 1.3219e+07)
(1.19783e+08 1919.1 -11928.9 1.17639e+08 2.40238e+06 1.32147e+07)
(1.19779e+08 120.024 -13753.7 1.17635e+08 2.42765e+06 1.3213e+07)
(1.1976e+08 -4370.12 -31011.2 1.17643e+08 2.41983e+06 1.32252e+07)
(1.19557e+08 -16410.2 -155318 1.17584e+08 2.36684e+06 1.32077e+07)
(1.17623e+08 -62414.2 -1.06966e+06 1.1667e+08 2.29106e+06 1.20753e+07)
(1.00247e+08 -105141 -5.01695e+06 1.08339e+08 1.96708e+06 2.44922e+06)
(5.58852e+07 -191343 -2.82577e+07 1.01554e+08 2.07466e+06 2.54817e+07)
(5.60907e+07 111899 2.84197e+07 1.02624e+08 1.29903e+06 2.58764e+07)
(1.00618e+08 67191.8 5.07563e+06 1.09461e+08 1.22673e+06 2.70498e+06)
(1.1813e+08 43642 1.09688e+06 1.17956e+08 1.44116e+06 1.24193e+07)
(1.20077e+08 11356.9 160781 1.18883e+08 1.50742e+06 1.35508e+07)
(1.20297e+08 1678.63 29445.4 1.18955e+08 1.51855e+06 1.35939e+07)
(1.20322e+08 546.27 14259.5 1.18963e+08 1.51836e+06 1.35831e+07)
(1.20323e+08 -400.089 11126.6 1.18961e+08 1.52009e+06 1.35804e+07)
(1.20327e+08 -427.273 8785.83 1.18968e+08 1.51604e+06 1.35832e+07)
(1.20327e+08 135.719 6988.65 1.18967e+08 1.51702e+06 1.35833e+07)
(1.20331e+08 -104.315 5923.75 1.1897e+08 1.51934e+06 1.35939e+07)
(1.20328e+08 595.615 3473.63 1.18968e+08 1.51748e+06 1.35867e+07)
(1.20328e+08 756.881 2307.93 1.18968e+08 1.53934e+06 1.35842e+07)
(1.20325e+08 -646.905 2299.81 1.1896e+08 1.52207e+06 1.3583e+07)
(1.20329e+08 -1597.73 1053.37 1.18969e+08 1.51745e+06 1.35871e+07)
(1.20333e+08 19.1008 -45.9782 1.18975e+08 1.49712e+06 1.35931e+07)
(1.20327e+08 931.645 -404.071 1.18966e+08 1.51852e+06 1.35841e+07)
(1.20328e+08 -461.327 -1288.89 1.18969e+08 1.5173e+06 1.35852e+07)
(1.20327e+08 625.2 -5992.21 1.18966e+08 1.51555e+06 1.35843e+07)
(1.20337e+08 7.01919 -2761.64 1.18985e+08 1.53925e+06 1.35942e+07)
(1.20331e+08 127.493 -424.339 1.18971e+08 1.49956e+06 1.35923e+07)
(1.20324e+08 689.805 -5130.71 1.18961e+08 1.54005e+06 1.35791e+07)
(1.20326e+08 -751.863 -6115.02 1.18965e+08 1.51883e+06 1.35849e+07)
(1.20327e+08 219.713 -8823.86 1.18968e+08 1.51686e+06 1.35833e+07)
(1.20324e+08 1111.5 -11372.3 1.18962e+08 1.51997e+06 1.35818e+07)
(1.20318e+08 -43.7533 -13888.4 1.18953e+08 1.5233e+06 1.35803e+07)
(1.20294e+08 -2201.48 -32346.7 1.18953e+08 1.51852e+06 1.35874e+07)
(1.20085e+08 -11988.5 -160907 1.18895e+08 1.52771e+06 1.35623e+07)
(1.18132e+08 -44095.6 -1.09351e+06 1.17957e+08 1.43979e+06 1.24248e+07)
(1.00618e+08 -66523 -5.07644e+06 1.09462e+08 1.22538e+06 2.70704e+06)
(5.60909e+07 -112110 -2.84205e+07 1.02627e+08 1.30152e+06 2.5876e+07)
(5.62268e+07 64843.2 2.85139e+07 1.03307e+08 790368 2.61305e+07)
(1.00852e+08 42102.8 5.11273e+06 1.10153e+08 762861 2.87082e+06)
(1.1845e+08 29493.2 1.11373e+06 1.18762e+08 901770 1.26415e+07)
(1.20412e+08 7587.23 164680 1.19711e+08 947915 1.37817e+07)
(1.20636e+08 1179.8 29461.5 1.1979e+08 936979 1.38225e+07)
(1.20662e+08 897.07 14561.4 1.19794e+08 955369 1.38154e+07)
(1.20664e+08 -197.583 10919.8 1.19794e+08 956280 1.3814e+07)
(1.20666e+08 -269.719 8529.42 1.19797e+08 954186 1.38146e+07)
(1.20666e+08 51.6276 6768.71 1.19797e+08 955047 1.38143e+07)
(1.20666e+08 -125.724 5708.19 1.19797e+08 956256 1.38147e+07)
(1.20668e+08 174.609 3701.24 1.19798e+08 954959 1.38182e+07)
(1.20664e+08 507.851 2660.17 1.19788e+08 957408 1.38141e+07)
(1.20667e+08 -160.614 2266.77 1.19794e+08 958293 1.38184e+07)
(1.20669e+08 -683.956 -2864.52 1.19799e+08 955440 1.38189e+07)
(1.20677e+08 60.1462 -48.7849 1.19813e+08 953871 1.38284e+07)
(1.20668e+08 335.377 3310.41 1.19798e+08 956549 1.38169e+07)
(1.20668e+08 -751.819 -1412.87 1.19799e+08 955616 1.38176e+07)
(1.20672e+08 1043.02 -2549.58 1.19805e+08 936596 1.38231e+07)
(1.20666e+08 730.027 -6077.15 1.19796e+08 978238 1.38143e+07)
(1.20676e+08 -1074.38 -3664.19 1.19811e+08 955660 1.38288e+07)
(1.20668e+08 22.489 -1488.67 1.19796e+08 941036 1.382e+07)
(1.20666e+08 34.3183 -6292.26 1.19795e+08 955349 1.38174e+07)
(1.20666e+08 228.764 -8716.29 1.19798e+08 955072 1.38152e+07)
(1.20665e+08 612.924 -10950.3 1.19794e+08 956481 1.38152e+07)
(1.20661e+08 -173.223 -13921.3 1.1979e+08 958458 1.3816e+07)
(1.20634e+08 -1629.16 -29828.5 1.19785e+08 955467 1.38209e+07)
(1.20414e+08 -8688.49 -165296 1.19709e+08 950302 1.37886e+07)
(1.18451e+08 -29770.3 -1.11384e+06 1.18759e+08 900156 1.2645e+07)
(1.00851e+08 -40796.4 -5.11361e+06 1.10153e+08 761895 2.87091e+06)
(5.62234e+07 -64565.4 -2.85154e+07 1.033e+08 811721 2.61222e+07)
(5.63143e+07 37254.2 2.85656e+07 1.03734e+08 498075 2.62885e+07)
(1.00997e+08 24966 5.14018e+06 1.10575e+08 468109 2.97379e+06)
(1.18648e+08 19318.9 1.12513e+06 1.1926e+08 556155 1.27797e+07)
(1.20621e+08 5634.26 164174 1.20226e+08 587408 1.39269e+07)
(1.20852e+08 751.801 29820.5 1.20315e+08 592020 1.39726e+07)
(1.20873e+08 236.754 18127.9 1.2031e+08 591616 1.39602e+07)
(1.20877e+08 -15.3139 10819.4 1.20312e+08 592423 1.39596e+07)
(1.20878e+08 -137.288 8375.31 1.20314e+08 591517 1.39594e+07)
(1.20878e+08 101.445 6758.8 1.20314e+08 592331 1.39592e+07)
(1.20878e+08 -184.829 5590.25 1.20314e+08 593458 1.39606e+07)
(1.20879e+08 -437.647 3784.95 1.20313e+08 591545 1.39626e+07)
(1.20882e+08 407.621 2898.63 1.20317e+08 576112 1.39684e+07)
(1.2088e+08 396.38 2176.63 1.20314e+08 593760 1.39646e+07)
(1.2088e+08 27.8192 315.195 1.20316e+08 592563 1.39638e+07)
(1.2088e+08 65.8784 77.2407 1.20314e+08 609975 1.39632e+07)
(1.2088e+08 -154.674 117.863 1.20315e+08 593380 1.3964e+07)
(1.2088e+08 -81.9309 -5027.59 1.20316e+08 593008 1.3964e+07)
(1.20888e+08 585.746 -2349.32 1.2033e+08 592421 1.39729e+07)
(1.20877e+08 521.256 864.096 1.20308e+08 596707 1.39599e+07)
(1.2088e+08 -263.754 -7132.55 1.20314e+08 611111 1.39638e+07)
(1.20887e+08 -693.02 -4890.55 1.20326e+08 595158 1.39733e+07)
(1.20877e+08 -336.139 -2988.13 1.2031e+08 591659 1.39616e+07)
(1.20878e+08 317.992 -8568 1.20315e+08 592507 1.39607e+07)
(1.20877e+08 302.112 -10745.8 1.20312e+08 592652 1.39609e+07)
(1.20874e+08 -333.724 -14030.1 1.2031e+08 593603 1.39627e+07)
(1.20844e+08 -1359.65 -33843.2 1.203e+08 591392 1.39659e+07)
(1.20631e+08 -6246.27 -168478 1.20239e+08 571269 1.39447e+07)
(1.18654e+08 -19347.3 -1.12196e+06 1.19267e+08 537272 1.27902e+07)
(1.00997e+08 -24023.7 -5.13592e+06 1.10576e+08 467850 2.97421e+06)
(5.6308e+07 -36657.7 -2.85699e+07 1.03719e+08 497963 2.6275e+07)
(5.63603e+07 20899.5 2.86003e+07 1.03971e+08 314602 2.6368e+07)
(1.01085e+08 13923.4 5.14813e+06 1.10829e+08 275956 3.03698e+06)
(1.18768e+08 12005 1.13255e+06 1.19561e+08 329637 1.28637e+07)
(1.20747e+08 4016.14 169776 1.20538e+08 349716 1.40154e+07)
(1.20976e+08 192.661 30479.9 1.20618e+08 369633 1.40608e+07)
(1.21001e+08 -163.47 14686.6 1.20622e+08 351326 1.40473e+07)
(1.21006e+08 226.353 10839.6 1.20626e+08 352201 1.4048e+07)
(1.21006e+08 -41.6164 8311.82 1.20628e+08 351999 1.40473e+07)
(1.21007e+08 27.1464 6846.69 1.20627e+08 352648 1.40475e+07)
(1.21011e+08 -346.463 5530.41 1.20631e+08 353341 1.40571e+07)
(1.21007e+08 114.85 299.992 1.20625e+08 351572 1.40494e+07)
(1.21017e+08 470.636 3110.69 1.20642e+08 353538 1.40628e+07)
(1.21009e+08 -96.0364 5568.48 1.20629e+08 353408 1.40526e+07)
(1.21009e+08 -577.063 214.255 1.20629e+08 352853 1.40518e+07)
(1.2101e+08 -75.8561 189.121 1.20628e+08 335257 1.40543e+07)
(1.21012e+08 490.186 260.855 1.20631e+08 352891 1.40605e+07)
(1.21013e+08 727.473 -1610.88 1.20633e+08 353303 1.40604e+07)
(1.2101e+08 399.812 -2140.05 1.20632e+08 371417 1.40524e+07)
(1.21007e+08 -834.478 -2529.24 1.20625e+08 355515 1.40515e+07)
(1.2101e+08 479.431 -3768.53 1.20629e+08 336198 1.40551e+07)
(1.2101e+08 -421.671 -4993.55 1.20631e+08 372961 1.40544e+07)
(1.21011e+08 -835.666 -6526.83 1.20632e+08 334293 1.40556e+07)
(1.21007e+08 597.783 -8490.5 1.20628e+08 353064 1.40499e+07)
(1.21006e+08 110.574 -10706.1 1.20626e+08 352212 1.4049e+07)
(1.21003e+08 -646.845 -14136.5 1.20626e+08 352932 1.40514e+07)
(1.20977e+08 18.2848 -34211.2 1.20623e+08 333947 1.40609e+07)
(1.20758e+08 -3040.94 -174277 1.20553e+08 368612 1.40309e+07)
(1.1878e+08 -12917.2 -1.12949e+06 1.19578e+08 329089 1.28788e+07)
(1.01086e+08 -14210.5 -5.14524e+06 1.10829e+08 275766 3.03877e+06)
(5.63595e+07 -20589.6 -2.85986e+07 1.03972e+08 295055 2.63653e+07)
(5.63898e+07 10783.3 2.86177e+07 1.04114e+08 135645 2.64207e+07)
(1.01134e+08 7948.45 5.15557e+06 1.10971e+08 144392 3.07062e+06)
(1.18836e+08 6463.29 1.13704e+06 1.19731e+08 173337 1.2911e+07)
(1.20823e+08 1382.24 171695 1.20718e+08 184223 1.40741e+07)
(1.21044e+08 -335.48 29881 1.2079e+08 167380 1.41017e+07)
(1.21078e+08 714.31 14903.9 1.20809e+08 167387 1.4103e+07)
(1.21079e+08 634.869 10940.7 1.20805e+08 185471 1.40982e+07)
(1.21079e+08 14.133 8303.7 1.20805e+08 185613 1.40971e+07)
(1.2108e+08 -61.6108 6701 1.20805e+08 186062 1.40977e+07)
(1.2108e+08 -690.192 5228.43 1.20805e+08 185615 1.40983e+07)
(1.21084e+08 711.83 3954.03 1.20811e+08 167832 1.41049e+07)
(1.21084e+08 756.24 3328.89 1.20809e+08 204586 1.41052e+07)
(1.21081e+08 -609.793 2071.97 1.20806e+08 186827 1.41027e+07)
(1.21082e+08 -141.792 -3345.86 1.20807e+08 186293 1.41018e+07)
(1.21088e+08 -251.239 -41.8208 1.20818e+08 185978 1.41103e+07)
(1.21081e+08 39.4291 3728.06 1.20805e+08 184634 1.41005e+07)
(1.21081e+08 545.09 -1256.76 1.20806e+08 186099 1.41014e+07)
(1.21079e+08 235.092 -1798.83 1.20801e+08 187343 1.40986e+07)
(1.21085e+08 -82.825 -5922.33 1.20808e+08 187069 1.41106e+07)
(1.21089e+08 224.863 -3705.06 1.20819e+08 187090 1.41118e+07)
(1.21083e+08 -311.739 -5255.05 1.20805e+08 187898 1.41095e+07)
(1.21088e+08 -412.102 -6666.05 1.20819e+08 185238 1.41103e+07)
(1.21084e+08 0.439527 -5308.81 1.2081e+08 186261 1.41082e+07)
(1.21078e+08 84.322 -10747.5 1.20803e+08 184958 1.40981e+07)
(1.21077e+08 1.67266 -17653.6 1.20805e+08 186078 1.41019e+07)
(1.21055e+08 500.038 -30946.7 1.2081e+08 184985 1.41167e+07)
(1.2082e+08 -1229.91 -168341 1.20713e+08 203430 1.40702e+07)
(1.18841e+08 -7679.34 -1.1376e+06 1.19737e+08 191478 1.29173e+07)
(1.01134e+08 -8011.05 -5.15567e+06 1.10969e+08 143349 3.07205e+06)
(5.63886e+07 -10535.9 -2.86178e+07 1.04114e+08 155768 2.64162e+07)
(5.64076e+07 3363.08 2.86223e+07 1.04192e+08 48801 2.6453e+07)
(1.01156e+08 2168.8 5.16406e+06 1.11034e+08 44733.7 3.08434e+06)
(1.18866e+08 1926.06 1.13896e+06 1.19807e+08 53924.3 1.2932e+07)
(1.20851e+08 107.022 167918 1.20794e+08 56595.5 1.40877e+07)
(1.21088e+08 246.79 26532.3 1.20893e+08 40341 1.41373e+07)
(1.21117e+08 493.66 18415.5 1.209e+08 57585.7 1.41317e+07)
(1.21112e+08 12.4404 14503.2 1.20886e+08 57400.6 1.4121e+07)
(1.21112e+08 31.8832 8326.41 1.20886e+08 57685.8 1.41196e+07)
(1.21112e+08 -21.3054 6614.3 1.20886e+08 57856.8 1.41205e+07)
(1.21113e+08 -46.5072 1659.62 1.20886e+08 57675.4 1.41204e+07)
(1.21122e+08 182.908 4095.86 1.20901e+08 57772 1.41333e+07)
(1.21112e+08 -29.9862 6964.26 1.20881e+08 58332 1.4123e+07)
(1.21118e+08 -138.721 2041.14 1.20889e+08 57851.3 1.41334e+07)
(1.21115e+08 440.043 -85.7868 1.20888e+08 58123 1.41242e+07)
(1.21115e+08 -367.192 -284.7 1.20886e+08 75428.3 1.41243e+07)
(1.21112e+08 -440.456 407.643 1.20883e+08 56459.3 1.41203e+07)
(1.21118e+08 434.993 -917.754 1.2089e+08 57938.3 1.41315e+07)
(1.21113e+08 140.757 -1882.39 1.20884e+08 58456.3 1.41226e+07)
(1.21114e+08 642.273 -2565.02 1.20886e+08 57619.2 1.41238e+07)
(1.21116e+08 82.7815 -3604.5 1.2089e+08 76485.1 1.41273e+07)
(1.21113e+08 -356.876 -5289.95 1.20884e+08 58548 1.4124e+07)
(1.21114e+08 -181.901 -6767.15 1.20886e+08 75091.2 1.4124e+07)
(1.21113e+08 -594.029 -8453.57 1.20887e+08 57559.1 1.41222e+07)
(1.2111e+08 74.8499 -10572.7 1.20881e+08 56580.2 1.41194e+07)
(1.2111e+08 653.86 -14219.8 1.20886e+08 57787.7 1.41254e+07)
(1.21081e+08 107.446 -30957.8 1.20877e+08 75047.6 1.41306e+07)
(1.20849e+08 -719.203 -172236 1.20786e+08 58065.4 1.40884e+07)
(1.18867e+08 -3055.68 -1.14017e+06 1.19805e+08 55085.4 1.2934e+07)
(1.01155e+08 -2711.81 -5.15885e+06 1.11029e+08 43103.7 3.0853e+06)