/*--------------------------------*- C++ -*----------------------------------*\
| =========                 |                                                 |
| \\      /  F ield         | OpenFOAM: The Open Source CFD Toolbox           |
|  \\    /   O peration     | Version:  2106                                  |
|   \\  /    A nd           | Website:  www.openfoam.com                      |
|    \\/     M anipulation  |                                                 |
\*---------------------------------------------------------------------------*/
FoamFile
{
    version     2.0;
    format      ascii;
    arch        "LSB;label=32;scalar=64";
    class       volTensorField;
    location    "661";
    object      testEpsilon;
}
// * * * * * * * * * * * * * * * * * * * * * * * * * * * * * * * * * * * * * //

dimensions      [0 0 0 0 0 0 0];

internalField   nonuniform List<tensor> 
9000
(
(-0.0855812 0.00384495 -0.105453 -0.00437202 -0.147117 -0.257499 0.201778 0.380314 -0.025371)
(-0.0167733 0.00368722 -0.00285546 -0.00261163 -0.156475 -0.270369 0.0216238 0.400626 -0.0697519)
(-0.0019293 0.00248185 0.00204114 -0.00181037 -0.166385 -0.287058 0.00309124 0.425371 -0.0595177)
(-0.000321064 0.00046709 0.000324657 -0.000365836 -0.167997 -0.290829 0.000579761 0.430918 -0.0573965)
(-5.53485e-05 -3.8789e-05 -2.83773e-05 2.28972e-05 -0.168078 -0.29094 0.000109107 0.431083 -0.0574088)
(-3.91727e-06 -2.31784e-05 -1.50993e-05 1.90737e-05 -0.167896 -0.290162 5.13803e-05 0.429882 -0.0576827)
(-1.35024e-06 -1.257e-06 -2.62385e-07 1.19206e-06 -0.16802 -0.290719 5.18755e-05 0.430766 -0.0575678)
(2.58096e-08 -3.10292e-05 -1.88047e-05 1.91991e-05 -0.167889 -0.29015 3.45807e-05 0.429872 -0.0576826)
(-9.32133e-07 3.99042e-05 2.54458e-05 -2.69992e-05 -0.167887 -0.290141 3.72424e-05 0.429856 -0.0576899)
(-6.55741e-06 1.74453e-05 8.80159e-06 -4.17843e-06 -0.168061 -0.290828 -2.36031e-05 0.430919 -0.0574715)
(2.41269e-06 -6.44951e-05 -4.45832e-05 5.19748e-05 -0.167943 -0.290389 -5.34194e-05 0.430245 -0.057598)
(7.84341e-06 1.75831e-05 1.37849e-05 -1.86581e-05 -0.167761 -0.289679 6.56038e-05 0.429154 -0.0578374)
(-4.5924e-06 6.00643e-05 4.13457e-05 -4.91635e-05 -0.16805 -0.290775 7.63508e-05 0.430842 -0.057499)
(-4.34921e-06 -1.20428e-05 -1.08451e-05 1.36979e-05 -0.168067 -0.290782 -4.95988e-05 0.430866 -0.0574877)
(3.42929e-06 6.11729e-06 3.95915e-06 -4.39311e-06 -0.167955 -0.290435 -2.56539e-07 0.430309 -0.0575819)
(-2.62932e-06 1.29371e-05 1.08157e-05 -1.53135e-05 -0.168064 -0.290839 5.01447e-05 0.430933 -0.0574729)
(-2.16429e-06 -1.85316e-05 -1.44657e-05 1.92068e-05 -0.168066 -0.290777 -5.81225e-05 0.43086 -0.0574927)
(9.80637e-09 1.44325e-06 1.52583e-06 6.96686e-08 -0.167958 -0.290445 -7.66698e-06 0.430323 -0.0575733)
(-2.17024e-06 -4.47272e-05 -2.82038e-05 3.13993e-05 -0.168052 -0.290796 -2.12387e-05 0.430874 -0.0574875)
(4.63617e-06 -4.11336e-05 -2.65857e-05 2.8383e-05 -0.167773 -0.289723 -2.66506e-05 0.429217 -0.0578018)
(2.74464e-06 5.95804e-05 4.04985e-05 -4.79481e-05 -0.167874 -0.290095 3.87972e-05 0.429796 -0.0577151)
(-5.69857e-06 4.60061e-05 2.95076e-05 -3.29386e-05 -0.16806 -0.290812 -1.6175e-05 0.43089 -0.0574862)
(-3.49955e-06 -3.46641e-05 -2.20097e-05 2.29001e-05 -0.168064 -0.290842 -4.23842e-05 0.430938 -0.0574685)
(7.62188e-08 -7.14897e-06 -4.15507e-06 5.52511e-06 -0.1679 -0.29018 -4.94701e-05 0.42991 -0.0576692)
(-7.78663e-06 1.20922e-05 6.86632e-06 -8.77791e-06 -0.168052 -0.290783 -5.61502e-05 0.43085 -0.0574956)
(-5.38914e-05 -2.20854e-05 -1.3417e-05 2.59663e-05 -0.167912 -0.290278 -0.000174086 0.430059 -0.0576054)
(-0.000314513 -0.000438584 -0.000306224 0.000347221 -0.167867 -0.290349 -0.000574866 0.430189 -0.0575388)
(-0.0019299 -0.00245466 -0.00202167 0.00178361 -0.16638 -0.286976 -0.00303537 0.425266 -0.0595439)
(-0.0167761 -0.00367936 0.00286059 0.00260566 -0.156473 -0.270363 -0.0216258 0.400618 -0.0697533)
(-0.0855805 -0.00384692 0.105454 0.00437386 -0.147116 -0.257485 -0.201781 0.380292 -0.0253765)
(-0.0724037 0.00189517 -0.103172 -0.00191774 -0.0980721 -0.0790754 0.196131 0.215442 -0.12899)
(-0.0163974 0.00216313 -0.0042612 -0.000798109 -0.103197 -0.0826095 0.0203117 0.226106 -0.175005)
(-0.00180221 0.00153313 0.000977684 -0.00066779 -0.109234 -0.0876367 0.00210828 0.240105 -0.171321)
(-0.000206425 0.000315904 0.000119144 -0.000173992 -0.1104 -0.0888296 0.000341017 0.243613 -0.170638)
(-2.73676e-05 -1.72143e-05 1.21293e-06 4.56889e-06 -0.110422 -0.0888672 6.45818e-05 0.243717 -0.170684)
(-4.50164e-06 -1.65624e-05 -2.57388e-06 1.00363e-05 -0.110202 -0.0886813 6.60651e-05 0.243397 -0.170699)
(-2.11178e-06 3.62261e-07 1.23597e-06 6.55908e-07 -0.110369 -0.0887943 5.0928e-05 0.243533 -0.17071)
(-1.49683e-06 -1.00274e-05 5.92329e-06 6.59983e-06 -0.110178 -0.08868 -1.10211e-05 0.243406 -0.170696)
(-7.6013e-07 1.51036e-05 -5.57573e-06 -1.0976e-05 -0.110179 -0.0886787 7.40851e-05 0.24339 -0.170703)
(-1.2029e-06 1.07476e-05 -1.96387e-06 3.70517e-06 -0.110394 -0.08883 6.96838e-05 0.243594 -0.170707)
(-4.69329e-07 -2.10551e-05 8.84131e-06 2.77114e-05 -0.110296 -0.0887374 -3.17427e-05 0.243852 -0.170677)
(7.2274e-08 4.02626e-07 -3.7748e-06 -1.2169e-05 -0.110076 -0.088574 1.2355e-05 0.243618 -0.170667)
(-1.08395e-06 1.47323e-05 -7.98586e-06 -2.87111e-05 -0.110393 -0.0888019 5.53795e-05 0.243532 -0.17071)
(-7.90164e-07 3.52239e-06 3.85816e-06 9.08944e-06 -0.11037 -0.0888008 -3.22966e-07 0.24326 -0.170691)
(1.25108e-07 7.61771e-06 -7.74121e-07 -1.15114e-07 -0.110309 -0.0887536 -2.15339e-06 0.243895 -0.17068)
(-3.74283e-07 -5.28541e-06 -2.48745e-06 -1.27478e-05 -0.110397 -0.0888343 -1.61416e-06 0.243608 -0.170711)
(-2.3721e-07 -2.10618e-06 3.2899e-06 1.24353e-05 -0.110368 -0.0887999 -4.86892e-06 0.243257 -0.170694)
(-1.71432e-07 4.3043e-06 -9.09808e-07 3.31071e-06 -0.110313 -0.0887566 -5.92896e-06 0.243901 -0.170676)
(-7.65301e-07 -1.81973e-05 5.523e-06 1.39027e-05 -0.110384 -0.0888176 -5.4639e-05 0.243563 -0.170711)
(-8.01959e-07 -1.59118e-05 6.04834e-06 1.20699e-05 -0.110083 -0.0885905 -6.18052e-05 0.243675 -0.170666)
(-8.05285e-07 1.65973e-05 -9.96866e-06 -2.49097e-05 -0.110164 -0.0886583 1.93417e-05 0.243345 -0.170691)
(-9.53879e-07 1.92192e-05 -5.87214e-06 -1.53788e-05 -0.110405 -0.0888195 1.56371e-05 0.243564 -0.170713)
(-1.12333e-06 -1.11028e-05 6.47967e-06 8.92575e-06 -0.110397 -0.0888351 -8.199e-05 0.243609 -0.170708)
(-1.58516e-06 -6.14595e-06 -1.21587e-06 2.66414e-06 -0.110196 -0.0886946 -4.51355e-05 0.243426 -0.170694)
(-5.18864e-06 1.02483e-05 2.09811e-06 -3.40764e-06 -0.110398 -0.0888112 -6.09956e-05 0.243536 -0.170711)
(-2.77331e-05 -1.53324e-06 7.44182e-06 2.13945e-05 -0.110214 -0.0887212 -0.000110204 0.243537 -0.170668)
(-0.000206191 -0.000311789 -0.000124851 0.000164877 -0.110288 -0.088721 -0.000294572 0.243831 -0.170607)
(-0.00180235 -0.00152535 -0.000980823 0.000650058 -0.109197 -0.0875935 -0.00210911 0.239741 -0.171319)
(-0.0163974 -0.00215505 0.00426083 0.000796707 -0.103195 -0.0826064 -0.0203166 0.226099 -0.175003)
(-0.0724026 -0.00189772 0.103172 0.00192025 -0.0980758 -0.0790748 -0.196132 0.215421 -0.12899)
(-0.076305 -0.00107816 -0.104038 0.0034236 -0.057554 -0.00938266 0.19753 0.125714 -0.153404)
(-0.0165233 0.00145493 -0.00456773 0.000287906 -0.0602169 -0.0111291 0.020298 0.132423 -0.201966)
(-0.00180447 0.00104121 0.000797128 -2.19584e-06 -0.0633659 -0.01163 0.00193962 0.141065 -0.199929)
(-0.000186592 0.000229379 7.8564e-05 -3.29544e-05 -0.064102 -0.0117949 0.000261082 0.143583 -0.199627)
(-1.85429e-05 7.54575e-07 1.27463e-06 -2.52249e-06 -0.064104 -0.0118058 0.000111927 0.143681 -0.199687)
(-4.69986e-06 -1.26052e-05 -5.28033e-07 2.29924e-06 -0.0639982 -0.0118166 7.08286e-05 0.143911 -0.199648)
(-2.03753e-06 3.49507e-06 -6.70723e-09 8.75328e-07 -0.0640743 -0.0117935 5.03889e-05 0.143546 -0.199696)
(-2.30057e-06 6.93796e-06 4.31723e-06 2.02828e-06 -0.0639918 -0.0118335 3.99729e-05 0.144123 -0.199667)
(-1.51106e-06 -3.26741e-06 -4.53716e-06 -2.44797e-06 -0.0640003 -0.0118255 2.04527e-05 0.1441 -0.199671)
(1.18008e-06 -5.9257e-06 -2.93918e-06 3.79206e-07 -0.0640766 -0.0117964 2.15724e-05 0.143592 -0.199701)
(-7.62134e-07 -8.05725e-07 6.60801e-06 7.26308e-06 -0.0640651 -0.011813 3.03947e-05 0.143558 -0.199687)
(-3.4411e-06 -1.71776e-06 8.8802e-07 -3.67318e-06 -0.0639771 -0.0118413 8.50502e-06 0.144079 -0.199649)
(-3.40721e-07 1.23743e-06 -4.00468e-06 -8.12818e-06 -0.0640562 -0.0117851 -3.60155e-05 0.14336 -0.199657)
(1.36999e-06 4.79126e-06 -1.18934e-06 2.89234e-06 -0.064008 -0.0117994 2.3046e-06 0.1436 -0.199683)
(-9.3815e-07 6.31601e-07 -2.75898e-06 4.08638e-07 -0.0640701 -0.0118126 2.69074e-05 0.14359 -0.199691)
(-1.19227e-07 1.01485e-06 1.55e-06 -3.15367e-06 -0.0640784 -0.0117989 -3.5557e-05 0.143606 -0.199703)
(1.04741e-06 -1.64347e-06 1.07323e-06 2.56524e-06 -0.0640076 -0.0118003 -6.35967e-07 0.143599 -0.199686)
(3.03284e-07 -1.70855e-06 -1.99606e-06 2.28301e-06 -0.0640722 -0.0118128 2.52041e-05 0.143589 -0.199691)
(-4.18412e-07 1.17877e-06 5.02239e-06 3.49525e-06 -0.0640704 -0.0117906 7.64396e-07 0.143566 -0.1997)
(-3.12632e-06 2.94139e-06 5.26743e-06 2.6674e-06 -0.0639811 -0.011847 -6.96696e-06 0.144095 -0.199653)
(-2.7451e-06 -4.67929e-06 -5.30677e-06 -6.36357e-06 -0.0639824 -0.0118285 -3.75708e-05 0.144106 -0.199657)
(1.06852e-06 -5.87791e-07 -5.86231e-06 -4.51198e-06 -0.0640673 -0.0117854 -4.09757e-05 0.143378 -0.199683)
(1.09044e-07 7.13807e-06 2.98027e-06 3.04873e-06 -0.0640767 -0.0117985 -2.91804e-05 0.143607 -0.199703)
(-2.39046e-06 -7.34372e-06 6.38917e-07 -6.04747e-07 -0.0640109 -0.0118321 -4.31527e-05 0.144121 -0.199667)
(-4.04056e-06 8.46318e-06 1.54266e-06 -3.77824e-07 -0.0640715 -0.0117827 -6.19898e-05 0.143355 -0.199676)
(-2.02344e-05 -2.5971e-07 4.62637e-06 9.53077e-06 -0.0640238 -0.0118381 -9.77329e-05 0.144209 -0.19965)
(-0.00018878 -0.000235313 -8.0691e-05 3.06051e-05 -0.0640791 -0.0118067 -0.000297884 0.143521 -0.19961)
(-0.00180354 -0.00103594 -0.000798749 -2.54473e-06 -0.0632929 -0.0116222 -0.00195173 0.141018 -0.199916)
(-0.0165221 -0.00145503 0.00456435 -0.000288881 -0.0602148 -0.0111279 -0.0202736 0.132418 -0.201963)
(-0.0763022 0.00107345 0.104035 -0.00341846 -0.0575633 -0.00937924 -0.197527 0.125684 -0.153406)
(-0.0818782 -0.00282252 -0.107653 0.00645342 -0.0351666 0.00543977 0.204392 0.0763785 -0.154294)
(-0.0170826 0.00100075 -0.00471067 0.000759703 -0.0372328 0.0034565 0.0209863 0.0810769 -0.205378)
(-0.00186638 0.000756114 0.000844524 0.000233761 -0.0391077 0.00393206 0.00213161 0.0872845 -0.203493)
(-0.00020649 0.000168293 8.39811e-05 3.25888e-05 -0.0396306 0.00401793 0.000296833 0.0889554 -0.203203)
(-2.03169e-05 3.53429e-06 -3.12562e-06 -5.06971e-06 -0.0396399 0.00401802 8.66573e-05 0.0890481 -0.203268)
(-3.82208e-06 -1.06216e-05 -1.13243e-07 -2.88493e-06 -0.0395808 0.00398837 7.14946e-05 0.0888712 -0.203236)
(-2.16597e-06 1.63719e-06 -2.13532e-06 9.03494e-07 -0.039605 0.00401562 6.94404e-05 0.0888191 -0.203264)
(-2.16149e-06 4.76618e-06 -4.59602e-07 -1.68368e-06 -0.0396222 0.00398594 3.86771e-05 0.0890176 -0.203286)
(-1.08994e-06 -1.84143e-06 1.82804e-06 2.84155e-06 -0.0396165 0.00399155 2.31981e-05 0.0888648 -0.203249)
(7.39312e-07 -2.20491e-06 5.34172e-07 2.88631e-06 -0.0396145 0.00401643 2.28711e-05 0.0889864 -0.20328)
(-1.27981e-06 -1.16498e-06 -1.32195e-07 -2.79447e-06 -0.0396095 0.00401103 2.95896e-05 0.0889651 -0.203277)
(-3.00598e-06 2.18339e-06 1.79952e-06 -6.68534e-07 -0.0396141 0.00398059 -1.09672e-05 0.0889781 -0.203254)
(2.29155e-07 8.56016e-06 3.86867e-07 3.32552e-06 -0.0395689 0.00400163 -7.65539e-06 0.0890031 -0.203259)
(9.172e-07 7.40309e-07 -1.64527e-06 1.32056e-06 -0.03959 0.00399306 2.24779e-05 0.0893412 -0.203286)
(-1.08409e-06 -6.45807e-06 -6.56229e-07 -5.00527e-07 -0.0396074 0.00401099 -8.28003e-07 0.0889936 -0.203279)
(5.70364e-08 7.20099e-06 -2.99416e-08 9.92604e-07 -0.0396159 0.00401349 -7.57316e-06 0.0890022 -0.203284)
(8.50125e-07 -8.6423e-07 4.9421e-07 -3.53859e-07 -0.0395907 0.003993 -8.901e-07 0.0893384 -0.203289)
(1.45719e-08 -8.24596e-06 1.02763e-06 -2.1278e-07 -0.0396077 0.00401083 -1.46789e-06 0.088993 -0.20328)
(-6.88422e-07 1.8832e-08 -1.31663e-06 -3.14595e-06 -0.0396114 0.00401895 -1.40235e-06 0.0889657 -0.203258)
(-2.77372e-06 1.6938e-06 -1.53192e-06 -3.19214e-06 -0.0396159 0.00398031 -9.79507e-06 0.0889999 -0.20328)
(-2.24116e-06 -6.50377e-07 2.36326e-06 2.88573e-06 -0.0396177 0.0039846 -5.49701e-05 0.0889987 -0.203261)
(9.2858e-07 3.43332e-07 1.43178e-07 2.8023e-06 -0.0395797 0.00401274 -3.98662e-05 0.0889798 -0.203252)
(-3.41888e-07 1.73702e-07 -2.87419e-06 -2.70279e-06 -0.0396121 0.00401454 -1.1071e-05 0.0890059 -0.203284)
(-2.27047e-06 -5.1052e-06 1.93502e-06 -2.58054e-06 -0.0396214 0.00399131 -6.32135e-05 0.0888733 -0.20327)
(-3.16153e-06 7.68097e-06 9.02727e-07 2.03751e-06 -0.0395742 0.00401283 -6.22723e-05 0.0888272 -0.203228)
(-2.15366e-05 -3.0446e-06 2.64245e-06 3.43615e-06 -0.0396475 0.00398906 -7.33911e-05 0.0890745 -0.203265)
(-0.000208606 -0.000165612 -8.16607e-05 -2.97618e-05 -0.039617 0.00401105 -0.000302435 0.0889113 -0.203193)
(-0.00186625 -0.000752499 -0.000845066 -0.000232503 -0.0390838 0.00391275 -0.00214626 0.0875886 -0.203466)
(-0.0170806 -0.00100914 0.00470942 -0.000762029 -0.0372313 0.00345678 -0.0209924 0.0810738 -0.205375)
(-0.0818824 0.00281398 0.107649 -0.00644348 -0.0351571 0.00544522 -0.204384 0.0762194 -0.15428)
(-0.0860587 -0.00311447 -0.112079 0.0066714 -0.0220581 0.00482876 0.212818 0.0479396 -0.152287)
(-0.0177673 0.00066671 -0.00486927 0.000874748 -0.0235781 0.00285461 0.0219726 0.0506929 -0.205729)
(-0.0019499 0.000561636 0.000909413 0.00026331 -0.0249318 0.00331627 0.00240921 0.055467 -0.203766)
(-0.000234358 0.000122935 9.57554e-05 4.96654e-05 -0.0252869 0.00340421 0.000325859 0.0565169 -0.203435)
(-2.56376e-05 1.07239e-05 -4.63774e-06 5.29217e-08 -0.025288 0.0034069 8.62856e-05 0.0564943 -0.203495)
(-3.50522e-06 -5.63748e-06 -1.00615e-06 -3.82023e-06 -0.0252438 0.00338911 4.95305e-05 0.0568008 -0.203526)
(-1.79728e-06 -4.78634e-06 -4.91906e-07 -8.83266e-07 -0.0252444 0.0033996 6.55297e-05 0.0564364 -0.203504)
(-1.91296e-06 4.65147e-06 -4.97249e-07 -1.83122e-07 -0.025282 0.00340778 3.64188e-05 0.0565778 -0.203529)
(-5.97066e-07 -1.73672e-06 1.56098e-06 1.42375e-06 -0.0252558 0.00339976 2.5932e-05 0.0565884 -0.203517)
(5.28716e-08 -4.5393e-06 9.57159e-07 1.39725e-07 -0.0252849 0.00340235 4.1357e-05 0.0565626 -0.203503)
(-1.4731e-06 -7.1568e-07 -5.60266e-07 -3.40905e-06 -0.0252667 0.00340189 2.51765e-05 0.0564416 -0.203506)
(-2.2171e-06 6.40682e-06 -9.93621e-07 1.5391e-06 -0.0252824 0.00340505 8.21006e-06 0.0565606 -0.203512)
(5.7098e-08 6.06244e-06 -1.50957e-06 3.77415e-06 -0.0252722 0.00338473 -3.82577e-06 0.0567761 -0.203531)
(6.0478e-07 -2.90651e-06 6.83875e-07 4.68375e-07 -0.0252994 0.00339567 3.81062e-06 0.056621 -0.203526)
(-1.00374e-06 -4.55369e-06 1.32681e-06 2.6527e-07 -0.025277 0.00340168 2.52602e-07 0.0565706 -0.20352)
(-8.98936e-08 4.3559e-06 -2.04817e-06 7.20735e-07 -0.0252874 0.00340357 -6.97945e-06 0.0565715 -0.203522)
(8.06332e-07 1.0217e-09 5.40067e-07 -6.6695e-07 -0.0253 0.0033965 -2.21745e-06 0.0566175 -0.203529)
(-2.55133e-07 -5.84724e-06 3.19469e-06 -1.04309e-06 -0.0252766 0.00340114 -1.01319e-06 0.0565705 -0.203522)
(-1.01428e-06 -4.62377e-07 -1.08039e-06 -2.97034e-06 -0.0252844 0.00340113 -5.53698e-06 0.0565607 -0.203492)
(-1.91999e-06 1.68728e-06 -1.603e-06 -1.89535e-06 -0.0252813 0.00340471 -1.35713e-05 0.0565658 -0.203523)
(-1.54621e-06 2.55107e-06 1.17826e-06 2.94033e-06 -0.0252817 0.00340454 -3.0427e-05 0.0565773 -0.203519)
(-4.91806e-08 5.26303e-07 1.25001e-07 3.22517e-06 -0.0252599 0.00338798 -3.51334e-05 0.0566743 -0.203519)
(-9.67523e-07 -1.20278e-06 -1.30471e-06 -1.10777e-06 -0.0252786 0.00340151 -4.95124e-05 0.05658 -0.203525)
(-1.4424e-06 2.38473e-07 2.96119e-07 -2.23957e-06 -0.0252633 0.00340893 -6.14796e-05 0.0565708 -0.203518)
(-2.83722e-06 3.24881e-06 1.09247e-06 1.73846e-06 -0.0252399 0.00338232 -4.22824e-05 0.0566629 -0.203506)
(-2.65943e-05 -8.82233e-06 4.27085e-06 -7.69727e-07 -0.0253027 0.00340869 -7.61877e-05 0.0566112 -0.203504)
(-0.000235968 -0.000122567 -9.59537e-05 -5.02752e-05 -0.0252853 0.00340699 -0.00032963 0.0564785 -0.203424)
(-0.00194999 -0.000558797 -0.000909602 -0.000260409 -0.0249488 0.00330314 -0.00241823 0.0555077 -0.203761)
(-0.0177643 -0.000669706 0.00487084 -0.000873997 -0.0235774 0.00285511 -0.0219992 0.0506892 -0.205727)
(-0.0860656 0.00310943 0.112054 -0.0066624 -0.0220261 0.00482603 -0.212768 0.0479226 -0.152278)
(-0.0887433 -0.0025949 -0.115939 0.00539155 -0.0139504 0.00256128 0.220175 0.0303727 -0.15126)
(-0.0183642 0.000426009 -0.00501317 0.000792324 -0.0148825 0.000987829 0.0229189 0.0317683 -0.206543)
(-0.0020314 0.000414346 0.000954445 0.00022542 -0.0159394 0.00130453 0.00266931 0.0350667 -0.20448)
(-0.000259141 9.70584e-05 0.000102107 5.03721e-05 -0.0161925 0.00135439 0.000365187 0.0360741 -0.204177)
(-3.1014e-05 1.21484e-05 -6.14569e-06 3.59575e-06 -0.0161812 0.00135535 0.000103431 0.0361547 -0.204246)
(-4.00932e-06 -1.90891e-06 -1.57252e-06 -3.09978e-06 -0.0161987 0.00134837 6.2248e-05 0.0363204 -0.204286)
(-1.43855e-06 -5.99509e-06 1.59765e-06 -1.72357e-06 -0.0161536 0.0013464 4.83611e-05 0.0361744 -0.204265)
(-1.70009e-06 2.49521e-06 -4.27706e-07 5.67568e-07 -0.0161936 0.00135804 5.01925e-05 0.0361383 -0.204273)
(-1.02538e-06 -2.41349e-06 7.41795e-07 -9.28102e-07 -0.0161861 0.00134963 2.66058e-05 0.0362887 -0.204284)
(-2.27249e-07 -4.3854e-06 9.6001e-07 -1.34612e-06 -0.0161861 0.0013489 9.94444e-06 0.0360443 -0.204259)
(-9.99931e-07 -6.71644e-07 4.07515e-07 -2.59887e-06 -0.0161653 0.00134898 2.17139e-05 0.0361247 -0.204262)
(-1.56934e-06 1.06819e-06 -1.63232e-06 -7.93189e-07 -0.0161879 0.00135249 2.3472e-05 0.0360364 -0.204235)
(1.50104e-08 5.15281e-06 -1.48793e-06 4.52297e-06 -0.0162056 0.00135135 1.16021e-07 0.03606 -0.204261)
(2.15424e-07 -2.17093e-07 1.74361e-06 1.9262e-06 -0.0162059 0.00136083 5.13984e-06 0.0361612 -0.204271)
(-1.03362e-06 -4.04322e-06 9.23935e-07 -1.05034e-06 -0.0161924 0.00135307 9.64776e-07 0.0361331 -0.204266)
(-1.29408e-07 2.60807e-06 -1.06534e-06 1.09995e-06 -0.01619 0.00135391 -6.38327e-06 0.0360392 -0.204257)
(4.9736e-07 1.28231e-06 7.34835e-09 3.40868e-07 -0.0162059 0.00136157 -3.02045e-06 0.0361572 -0.204272)
(-4.46107e-07 -5.12878e-06 1.95366e-06 -3.37642e-06 -0.0161918 0.00135283 -2.6731e-06 0.0361347 -0.204269)
(-8.58875e-07 -9.12057e-07 -6.02914e-07 -2.061e-06 -0.0161894 0.00134376 -8.2735e-06 0.0360451 -0.204237)
(-1.59159e-06 2.22922e-06 -8.50815e-07 4.55709e-07 -0.0161984 0.00135826 -1.43884e-05 0.0361261 -0.204268)
(-1.21706e-06 3.619e-06 -9.81058e-07 2.30478e-06 -0.0162014 0.00135645 -4.27282e-05 0.0361339 -0.204248)
(1.18961e-07 9.78212e-07 -4.61345e-07 2.78696e-06 -0.0161824 0.00134611 -3.21177e-05 0.0361639 -0.204271)
(-1.43484e-06 -4.91057e-07 1.31435e-06 -3.42106e-07 -0.0161924 0.00135265 -1.81943e-05 0.036141 -0.204273)
(-1.70122e-06 2.63543e-06 -1.90375e-06 -1.2974e-06 -0.0161834 0.00135228 -6.16934e-05 0.0361923 -0.204252)
(-2.86756e-06 -2.07703e-07 8.56126e-07 1.06347e-06 -0.0161747 0.00134036 -5.72695e-05 0.0362083 -0.204266)
(-3.19393e-05 -1.21264e-05 7.57716e-06 -4.39976e-06 -0.016212 0.00135989 -8.01977e-05 0.0361533 -0.204246)
(-0.000260534 -9.48395e-05 -0.000102771 -4.98901e-05 -0.0161881 0.00135454 -0.000387007 0.0359563 -0.204135)
(-0.00203099 -0.000410924 -0.000955442 -0.000222283 -0.0159479 0.00130988 -0.00267288 0.0350792 -0.204496)
(-0.018361 -0.000424597 0.00501399 -0.00079084 -0.0148823 0.000989372 -0.0229248 0.031764 -0.20654)
(-0.0887424 0.00259838 0.115911 -0.00539313 -0.0139379 0.00255408 -0.22012 0.0305107 -0.151264)
(-0.0904005 -0.0018596 -0.11877 0.00378948 -0.0088207 0.00124347 0.225575 0.0192343 -0.150981)
(-0.0188005 0.000268912 -0.00512062 0.000627568 -0.00929864 0.000148334 0.0236879 0.0198347 -0.207534)
(-0.00209829 0.000299628 0.000982727 0.000176076 -0.0101 0.00035036 0.00287075 0.0222767 -0.20547)
(-0.000278723 7.45752e-05 0.000105919 4.20005e-05 -0.0103126 0.000378358 0.000443195 0.0229574 -0.205149)
(-3.6332e-05 9.47789e-06 -5.84213e-06 4.0974e-06 -0.01032 0.000378043 0.000108868 0.0231453 -0.205217)
(-4.56908e-06 -1.14937e-07 -2.79689e-06 -1.88893e-06 -0.0103373 0.000384907 4.5315e-05 0.0230533 -0.205249)
(-1.06381e-06 -3.7633e-06 1.44235e-06 -1.62623e-06 -0.0103012 0.000372196 4.80872e-05 0.0231444 -0.205235)
(-1.75386e-06 -1.85304e-06 1.50214e-07 -9.16445e-07 -0.0103186 0.000379027 4.87469e-05 0.0230178 -0.205248)
(-9.79803e-07 -2.29588e-07 -2.67956e-07 -2.78768e-07 -0.0103282 0.000379412 1.20224e-05 0.0230342 -0.20525)
(-2.81282e-07 -3.85837e-07 8.25948e-07 -7.26921e-09 -0.0102967 0.000374184 2.41845e-05 0.0230184 -0.205245)
(-1.36252e-06 -1.07437e-06 1.58166e-07 -2.45894e-06 -0.0103067 0.000373576 1.90817e-05 0.0231268 -0.205253)
(-7.92734e-07 -1.64137e-06 -5.19474e-07 -1.86351e-06 -0.010302 0.000371765 -6.0372e-06 0.0230164 -0.205235)
(6.00976e-07 2.45953e-06 1.5815e-07 3.30829e-06 -0.0103028 0.000380282 1.78512e-05 0.0229442 -0.205231)
(-5.09882e-07 -2.68603e-07 1.02731e-06 1.31498e-06 -0.0103254 0.000381771 2.03712e-05 0.0230315 -0.205244)
(-1.16899e-06 -1.3666e-06 -5.75717e-08 -4.42915e-07 -0.0103182 0.000376502 -1.33658e-05 0.0230134 -0.205242)
(1.88348e-07 1.65271e-06 -3.47345e-07 1.22444e-06 -0.0102998 0.000375956 -5.19728e-06 0.0230152 -0.205239)
(-8.89426e-08 -3.69616e-07 3.25369e-07 -4.0789e-07 -0.0103253 0.000381845 1.07782e-05 0.0230285 -0.205245)
(-7.35507e-07 -2.54363e-06 -3.67982e-07 -2.86182e-06 -0.0103176 0.000377164 -1.94662e-05 0.0230142 -0.205244)
(-2.47857e-07 -1.78309e-06 4.83624e-09 -2.08402e-06 -0.0103036 0.000368072 -9.86135e-06 0.0230188 -0.20524)
(-1.04683e-06 -7.18182e-07 9.36256e-07 -1.01941e-06 -0.0103141 0.000377648 -2.21823e-07 0.0229265 -0.205233)
(-1.07996e-06 5.74499e-06 -1.2516e-06 3.88201e-06 -0.010321 0.000373761 -2.58553e-05 0.0229416 -0.205217)
(-5.78558e-07 2.32897e-06 -6.3553e-07 3.65457e-06 -0.0103186 0.000379727 -2.93348e-05 0.0231485 -0.205257)
(-1.78439e-06 -1.39886e-06 -7.06969e-08 -1.25652e-06 -0.0103178 0.000377372 -4.77002e-05 0.0230202 -0.205249)
(-1.16128e-06 3.78488e-06 -2.16166e-06 2.53894e-07 -0.0103102 0.00037323 -6.12477e-05 0.0230424 -0.205242)
(-3.45769e-06 -2.45854e-06 2.6149e-06 -2.67208e-07 -0.0103057 0.000377007 -4.18255e-05 0.0230773 -0.205241)
(-3.6785e-05 -1.15138e-05 7.10693e-06 -6.07893e-06 -0.0103222 0.00037916 -0.000100167 0.0229415 -0.20521)
(-0.000279545 -6.97494e-05 -0.000105956 -3.85042e-05 -0.0103007 0.000369692 -0.000448409 0.0229487 -0.205114)
(-0.00209818 -0.000297625 -0.000982636 -0.000173864 -0.0101055 0.000357495 -0.00286286 0.0222766 -0.205465)
(-0.0187985 -0.000267713 0.00511968 -0.000627848 -0.00929978 0.000151449 -0.0236926 0.0198274 -0.207529)
(-0.0903957 0.00186604 0.118756 -0.00379851 -0.0088276 0.00124165 -0.225549 0.0192596 -0.150985)
(-0.0914194 -0.00121565 -0.120641 0.00244181 -0.00556882 0.000652375 0.229145 0.0121465 -0.150956)
(-0.0190869 0.000170144 -0.00519179 0.000452318 -0.00576957 -5.17272e-05 0.0242846 0.0123488 -0.208325)
(-0.00214851 0.000211553 0.00100045 0.000132981 -0.0063795 7.49748e-05 0.00302855 0.0141546 -0.206271)
(-0.000293537 5.30557e-05 0.000107643 3.03962e-05 -0.006538 9.19919e-05 0.000465669 0.0145594 -0.205942)
(-3.97919e-05 7.21593e-06 -4.83577e-06 3.67622e-06 -0.00655953 9.04403e-05 0.000112418 0.0146365 -0.206008)
(-5.15404e-06 1.8561e-06 -2.74189e-06 2.76866e-07 -0.00655821 9.90819e-05 5.74183e-05 0.0146325 -0.206043)
(-1.24405e-06 -2.25603e-06 4.21528e-07 -1.63054e-06 -0.00655251 9.23702e-05 4.57498e-05 0.0147304 -0.206052)
(-1.43059e-06 -2.89287e-06 1.01541e-06 -1.30211e-06 -0.00654607 9.17403e-05 3.45102e-05 0.014612 -0.206045)
(-8.4354e-07 1.96261e-06 -2.26639e-07 1.14832e-06 -0.00655175 9.65372e-05 2.62988e-05 0.0146202 -0.206046)
(-6.63283e-07 -9.84653e-08 -2.07228e-07 -4.32784e-07 -0.00653849 9.32974e-05 2.38836e-05 0.0147091 -0.20605)
(-1.37118e-06 -1.73003e-06 -7.63885e-08 -2.72542e-06 -0.00654982 9.21699e-05 1.65087e-05 0.0146193 -0.206044)
(-4.15894e-07 1.85972e-06 -2.9115e-07 9.39349e-07 -0.00653399 8.69302e-05 -5.77542e-06 0.0146357 -0.206041)
(6.50709e-07 4.65575e-07 5.13235e-07 1.87354e-06 -0.00652734 9.07567e-05 6.43495e-06 0.0147195 -0.206043)
(-5.34816e-07 -3.30936e-06 9.87658e-07 -1.44067e-06 -0.00654945 9.26316e-05 1.98093e-05 0.014621 -0.206041)
(-1.05173e-06 1.08798e-06 -2.39093e-07 7.79729e-07 -0.00654687 8.92463e-05 4.30274e-07 0.0146084 -0.206042)
(-1.22403e-07 1.19586e-06 3.32255e-09 1.17146e-06 -0.00653979 9.16565e-05 -3.96173e-06 0.014708 -0.206048)
(-3.19892e-07 -2.28453e-06 2.49046e-07 -1.62929e-06 -0.00654926 9.23561e-05 -3.77876e-06 0.0146186 -0.206043)
(-7.81332e-07 -7.93233e-07 -8.00888e-07 -1.84521e-06 -0.00654541 9.05307e-05 -7.06912e-06 0.0146094 -0.206042)
(-4.90392e-07 -2.05149e-07 -5.06214e-07 -6.76237e-07 -0.00653909 8.91482e-05 -2.41846e-05 0.0146306 -0.206041)
(-3.98385e-07 -1.23942e-06 2.86982e-07 -1.25624e-06 -0.00652971 8.74971e-05 -2.88993e-05 0.0146083 -0.206035)
(-2.8226e-07 2.71817e-06 -5.65157e-07 2.24858e-06 -0.00652618 8.29659e-05 -9.69448e-06 0.0145439 -0.206031)
(-9.08744e-07 1.61023e-06 2.60744e-07 3.01995e-06 -0.00655684 9.54458e-05 -1.29096e-05 0.0146323 -0.206046)
(-2.11497e-06 1.17482e-06 1.49817e-08 6.10123e-07 -0.00654555 9.17221e-05 -3.43238e-05 0.0146141 -0.206046)
(-1.50336e-06 5.05545e-06 -1.97681e-06 2.34294e-06 -0.0065459 9.29592e-05 -6.00661e-05 0.0147253 -0.206052)
(-4.13413e-06 -2.61101e-06 2.04213e-06 -8.93149e-07 -0.00654169 9.65405e-05 -6.87048e-05 0.0147385 -0.206044)
(-3.95867e-05 -1.11239e-05 6.11425e-06 -7.36376e-06 -0.00653392 8.99315e-05 -9.24444e-05 0.0146168 -0.206011)
(-0.000294091 -5.14833e-05 -0.000107104 -2.89702e-05 -0.00653273 8.3105e-05 -0.000452963 0.014575 -0.205933)
(-0.00214886 -0.000210743 -0.00099909 -0.000131063 -0.00638377 7.74948e-05 -0.00303359 0.0141531 -0.206263)
(-0.0190859 -0.000169022 0.00519082 -0.00045233 -0.0057719 -5.23466e-05 -0.0242915 0.0123467 -0.2083)
(-0.091416 0.00122158 0.120633 -0.00245059 -0.00557312 0.000656946 -0.229131 0.0121601 -0.150961)
(-0.0920467 -0.000750487 -0.121801 0.00149046 -0.00351598 0.00038028 0.231357 0.00765002 -0.15098)
(-0.0192623 0.000106775 -0.0052361 0.000302683 -0.00357491 -5.15789e-05 0.0246831 0.00768356 -0.208848)
(-0.00218267 0.00014594 0.00101147 9.8301e-05 -0.00402839 2.86668e-05 0.00314773 0.00885649 -0.206796)
(-0.000304584 3.85701e-05 0.000109012 2.29203e-05 -0.00413984 3.70871e-05 0.000493037 0.00921216 -0.206478)
(-4.23558e-05 5.43559e-06 -4.42413e-06 3.18666e-06 -0.0041575 3.68284e-05 0.000113656 0.0092692 -0.20656)
(-5.63044e-06 1.28978e-06 -2.41092e-06 5.58512e-07 -0.00415598 3.94953e-05 5.71185e-05 0.00926864 -0.20658)
(-1.37961e-06 -1.33487e-06 -2.59628e-08 -1.22294e-06 -0.00416118 4.20181e-05 4.4362e-05 0.00927491 -0.206586)
(-1.19809e-06 -1.70136e-06 9.83611e-07 -8.02489e-07 -0.00414849 3.6697e-05 3.42321e-05 0.00925561 -0.206585)
(-8.05938e-07 1.28631e-06 4.34593e-08 4.62971e-07 -0.00415147 3.86176e-05 2.70714e-05 0.00926049 -0.206583)
(-1.05603e-06 -3.9628e-10 -4.74947e-08 -4.60181e-07 -0.00415488 3.98379e-05 2.3456e-05 0.00926731 -0.20657)
(-1.08809e-06 -1.74143e-07 -1.11526e-06 -9.9089e-07 -0.00415079 4.03725e-05 1.47275e-06 0.00926009 -0.206581)
(1.27057e-07 2.85422e-06 -8.02123e-07 1.87713e-06 -0.00413925 3.54701e-05 8.60979e-06 0.00926867 -0.206577)
(1.24972e-07 -6.32088e-07 1.29843e-06 6.25764e-07 -0.00415146 3.82838e-05 2.08316e-05 0.00935913 -0.206586)
(-7.28644e-07 -4.17347e-06 7.25229e-07 -2.66282e-06 -0.0041502 3.68192e-05 5.19831e-06 0.00926226 -0.20658)
(-6.46567e-07 5.65093e-07 -2.52593e-07 1.12693e-07 -0.00415245 3.59129e-05 5.61411e-07 0.00925145 -0.206581)
(-2.93456e-07 1.17497e-06 2.74616e-07 1.25729e-06 -0.00415465 3.7238e-05 -2.95074e-06 0.00926785 -0.206571)
(-6.92275e-07 -1.4942e-06 1.00195e-07 -9.17322e-07 -0.00414968 3.65582e-05 -4.69714e-06 0.0092607 -0.206582)
(-5.44897e-07 -5.10464e-07 -1.00955e-06 -1.71423e-06 -0.00414865 3.44713e-05 -2.10825e-05 0.00925441 -0.206582)
(-1.30065e-07 1.35807e-06 -6.0187e-07 7.09031e-07 -0.00413641 3.45782e-05 -1.05997e-05 0.00919758 -0.206557)
(-4.61869e-07 1.86336e-06 -3.00201e-07 1.68923e-06 -0.00414664 3.54125e-05 -1.57616e-05 0.00933951 -0.206584)
(-2.24724e-07 3.19111e-07 3.38134e-07 8.03469e-07 -0.00412966 3.17975e-05 -2.17268e-05 0.0093509 -0.206584)
(-9.06249e-07 -1.5455e-06 1.11571e-06 9.79112e-08 -0.00415487 4.1419e-05 -1.18326e-05 0.00926838 -0.206583)
(-1.9198e-06 7.88273e-07 -5.68023e-07 4.15634e-07 -0.00414812 3.72095e-05 -3.40155e-05 0.00925797 -0.206585)
(-1.46194e-06 4.55732e-06 -1.19799e-06 2.88305e-06 -0.00415832 3.98794e-05 -4.50503e-05 0.00927414 -0.206585)
(-5.39903e-06 -6.13148e-08 2.00936e-06 5.2665e-07 -0.00416085 4.41799e-05 -5.53326e-05 0.0093678 -0.206584)
(-4.24004e-05 -9.72222e-06 4.41982e-06 -7.22073e-06 -0.00414604 3.62486e-05 -0.00012465 0.00934545 -0.206561)
(-0.000304285 -3.97202e-05 -0.000108443 -2.39021e-05 -0.00412929 3.12764e-05 -0.000493723 0.00914497 -0.206463)
(-0.00218285 -0.000145459 -0.00100973 -9.65206e-05 -0.00403118 2.80138e-05 -0.00313735 0.00885441 -0.206787)
(-0.0192624 -0.000105584 0.00523557 -0.000302049 -0.00357569 -5.59375e-05 -0.0246863 0.00768229 -0.208843)
(-0.0920456 0.000755405 0.121799 -0.00149724 -0.00351662 0.000384825 -0.231354 0.00765865 -0.150983)
(-0.0924324 -0.000447488 -0.122492 0.000881323 -0.00222658 0.000235609 0.232675 0.00480074 -0.151003)
(-0.0193653 6.76617e-05 -0.00526211 0.000192841 -0.00222317 -2.49828e-05 0.0249403 0.00478103 -0.209169)
(-0.00220447 9.85664e-05 0.00101818 7.06336e-05 -0.00254182 2.55175e-05 0.00323444 0.00556187 -0.207125)
(-0.00031256 2.72325e-05 0.000109276 1.67982e-05 -0.00262684 2.84601e-05 0.000514072 0.00581582 -0.206814)
(-4.42643e-05 3.98897e-06 -4.35413e-06 2.51909e-06 -0.00264489 2.75805e-05 0.000118514 0.00585985 -0.206888)
(-6.03596e-06 1.12165e-06 -1.70395e-06 9.96234e-07 -0.00264019 2.85908e-05 5.6988e-05 0.00585808 -0.206919)
(-1.51625e-06 -7.58426e-07 -1.38133e-07 -7.92721e-07 -0.0026428 3.28635e-05 4.32761e-05 0.00586052 -0.206923)