/*--------------------------------*- C++ -*----------------------------------*\
| =========                 |                                                 |
| \\      /  F ield         | OpenFOAM: The Open Source CFD Toolbox           |
|  \\    /   O peration     | Version:  2106                                  |
|   \\  /    A nd           | Website:  www.openfoam.com                      |
|    \\/     M anipulation  |                                                 |
\*---------------------------------------------------------------------------*/
FoamFile
{
    version     2.0;
    format      ascii;
    arch        "LSB;label=32;scalar=64";
    class       volVectorField;
    location    "162";
    object      D;
}
// * * * * * * * * * * * * * * * * * * * * * * * * * * * * * * * * * * * * * //

dimensions      [0 1 0 0 0 0 0];

internalField   nonuniform List<vector> 
9000
(
(8.38307e-06 1.9555e-05 -3.90795e-06)
(1.20847e-06 2.25157e-05 -4.24295e-06)
(2.54554e-07 2.4134e-05 -4.27333e-06)
(-3.23136e-07 2.4767e-05 -3.91916e-06)
(1.02922e-08 2.70057e-05 1.21193e-06)
(1.77002e-07 2.54938e-05 -3.44414e-06)
(3.90566e-08 2.82172e-05 1.4345e-06)
(1.67511e-07 2.50052e-05 -3.82681e-06)
(-2.42511e-07 2.41612e-05 -4.37527e-06)
(-3.70253e-07 2.28064e-05 -4.63003e-06)
(-2.10056e-07 2.26815e-05 -3.51536e-06)
(2.00428e-08 2.6843e-05 9.61693e-07)
(2.92484e-07 2.28108e-05 -3.47324e-06)
(-2.2036e-07 2.36922e-05 -4.529e-06)
(-4.42829e-07 2.07521e-05 -4.18221e-06)
(4.28411e-07 2.0771e-05 -4.16766e-06)
(2.07007e-07 2.35872e-05 -4.5859e-06)
(-1.50185e-07 2.17406e-05 -5.05596e-06)
(-8.06025e-09 2.241e-05 -4.80265e-06)
(-6.28736e-08 2.26768e-05 -3.51384e-06)
(3.7672e-07 2.7117e-05 1.05575e-06)
(3.99524e-07 2.48972e-05 -3.88038e-06)
(3.87832e-08 2.44009e-05 -4.26324e-06)
(-6.97557e-08 2.44143e-05 -4.24782e-06)
(-4.29242e-07 2.41269e-05 -4.34764e-06)
(-4.8448e-07 2.19292e-05 -3.99027e-06)
(8.0095e-08 2.17326e-05 -3.83527e-06)
(2.97373e-07 2.75603e-05 1.17588e-06)
(-1.27093e-06 2.42959e-05 -3.96946e-06)
(-1.07997e-05 2.40512e-05 2.6106e-06)
(8.68087e-06 1.23357e-05 -5.28816e-06)
(1.03038e-06 1.36606e-05 -6.68346e-06)
(1.85272e-07 1.52569e-05 -6.97415e-06)
(-4.52205e-07 1.57212e-05 -6.96295e-06)
(-2.89085e-08 1.68669e-05 -8.77401e-06)
(1.81783e-07 1.62751e-05 -6.94576e-06)
(7.05875e-08 1.82356e-05 -9.19348e-06)
(2.95526e-07 1.5929e-05 -6.96707e-06)
(-1.95752e-07 1.53234e-05 -6.97077e-06)
(-4.29655e-07 1.38194e-05 -6.5636e-06)
(-3.11236e-07 1.45381e-05 -6.86628e-06)
(1.23072e-08 1.68662e-05 -9.11063e-06)
(4.18868e-07 1.46331e-05 -6.87788e-06)
(-1.73811e-07 1.49723e-05 -6.9822e-06)
(-4.87998e-07 1.26549e-05 -6.46444e-06)
(4.75845e-07 1.26677e-05 -6.46514e-06)
(2.26708e-07 1.48566e-05 -6.98334e-06)
(-1.63232e-07 1.26148e-05 -6.4795e-06)
(-6.52965e-08 1.34883e-05 -6.56388e-06)
(-1.92236e-07 1.45343e-05 -6.86852e-06)
(3.92277e-07 1.70788e-05 -9.10506e-06)
(5.03078e-07 1.58442e-05 -6.96545e-06)
(7.12963e-08 1.55085e-05 -6.97033e-06)
(-5.51921e-08 1.55103e-05 -6.97668e-06)
(-4.35686e-07 1.52847e-05 -6.98341e-06)
(-5.4646e-07 1.39914e-05 -6.8792e-06)
(-8.96334e-10 1.34824e-05 -6.77744e-06)
(3.26414e-07 1.77232e-05 -9.1986e-06)
(-1.12454e-06 1.54548e-05 -7.05686e-06)
(-1.01119e-05 1.53804e-05 -6.92242e-06)
(9.18057e-06 7.74954e-06 -6.17209e-06)
(1.04051e-06 7.77077e-06 -7.83906e-06)
(2.45173e-07 9.65131e-06 -8.33925e-06)
(-5.3915e-07 9.9959e-06 -8.42489e-06)
(-3.48287e-08 1.12035e-05 -9.91514e-06)
(2.88681e-07 1.04606e-05 -8.50264e-06)
(8.17059e-08 1.15799e-05 -9.98793e-06)
(2.83347e-07 1.0181e-05 -8.43011e-06)
(-2.93197e-07 9.77679e-06 -8.33085e-06)
(-3.81048e-07 9.21336e-06 -8.2788e-06)
(-2.5739e-07 9.63836e-06 -9.07272e-06)
(7.97121e-09 9.90919e-06 -9.71826e-06)
(4.84466e-07 9.65772e-06 -9.07818e-06)
(-2.60133e-07 9.51689e-06 -8.35346e-06)
(-5.37674e-07 8.87646e-06 -8.94595e-06)
(5.19964e-07 8.88471e-06 -8.95159e-06)
(5.98202e-08 9.41165e-06 -8.33211e-06)
(-2.81717e-07 7.52609e-06 -7.96717e-06)
(1.92677e-07 8.94801e-06 -8.25803e-06)
(-1.3629e-07 9.63599e-06 -9.07742e-06)
(3.28784e-07 1.00782e-05 -9.70967e-06)
(5.61326e-07 1.01265e-05 -8.41505e-06)
(8.53162e-08 9.89711e-06 -8.34356e-06)
(-5.12079e-08 9.88919e-06 -8.3494e-06)
(-3.74868e-07 9.70638e-06 -8.35919e-06)
(-5.82107e-07 9.21115e-06 -8.99987e-06)
(-4.80623e-08 8.1312e-06 -8.80201e-06)
(3.35874e-07 1.11594e-05 -9.96906e-06)
(-1.09804e-06 9.7692e-06 -8.33491e-06)
(-9.89574e-06 9.62465e-06 -7.69038e-06)
(9.5643e-06 4.87655e-06 -6.67099e-06)
(1.12097e-06 5.06143e-06 -8.64158e-06)
(4.10986e-07 6.10339e-06 -9.02788e-06)
(-3.74173e-07 6.29251e-06 -9.09229e-06)
(-1.79044e-08 7.88658e-06 -9.97795e-06)
(1.91224e-07 6.73018e-06 -9.13977e-06)
(7.56225e-08 7.24258e-06 -9.58127e-06)
(2.29816e-07 6.49079e-06 -9.07974e-06)
(-2.15678e-07 6.26254e-06 -9.02891e-06)
(-4.24063e-07 6.60034e-06 -9.43224e-06)
(-4.40184e-07 5.38218e-06 -9.27744e-06)
(-5.91905e-10 6.48219e-06 -9.49978e-06)
(5.84005e-07 5.30797e-06 -9.26948e-06)
(-1.59632e-07 6.04782e-06 -9.04752e-06)
(-4.82387e-07 5.67441e-06 -9.63942e-06)
(4.61211e-07 5.67956e-06 -9.64148e-06)
(-9.6839e-08 6.0018e-06 -9.04062e-06)
(-2.05486e-07 5.61001e-06 -9.33133e-06)
(2.5741e-07 6.41667e-06 -9.43211e-06)
(-3.02081e-07 5.38158e-06 -9.27879e-06)
(3.7114e-07 6.63626e-06 -9.4912e-06)
(6.59859e-07 6.50794e-06 -9.07282e-06)
(8.60737e-08 6.32203e-06 -9.02645e-06)
(-5.70376e-08 6.31153e-06 -9.02858e-06)
(-4.31055e-07 6.13964e-06 -9.0381e-06)
(-7.8905e-07 5.01657e-06 -9.2236e-06)
(4.52389e-08 4.58283e-06 -9.18448e-06)
(5.25312e-07 6.89929e-06 -9.57e-06)
(-1.12967e-06 6.0298e-06 -8.85509e-06)
(-1.00991e-05 5.93616e-06 -7.25443e-06)
(1.00242e-05 3.08332e-06 -6.90484e-06)
(1.21767e-06 3.51668e-06 -9.12866e-06)
(3.79576e-07 3.84504e-06 -9.33836e-06)
(-2.75242e-07 3.80605e-06 -9.37059e-06)
(1.46142e-08 4.59186e-06 -9.6069e-06)
(1.40779e-07 4.29312e-06 -9.38288e-06)
(6.32707e-08 4.30442e-06 -9.44214e-06)
(1.94249e-07 4.0997e-06 -9.35677e-06)
(-2.03812e-07 4.01024e-06 -9.34279e-06)
(-5.55915e-07 3.83237e-06 -9.51412e-06)
(-3.66884e-07 3.72988e-06 -9.42554e-06)
(-1.43051e-08 4.46254e-06 -9.58046e-06)
(4.83562e-07 3.55858e-06 -9.42147e-06)
(-1.18718e-07 3.86426e-06 -9.35513e-06)
(-5.74226e-07 3.64951e-06 -9.57927e-06)
(5.54381e-07 3.65384e-06 -9.57925e-06)
(3.08959e-08 3.85077e-06 -9.3574e-06)
(-1.89197e-07 3.33351e-06 -9.6536e-06)
(1.02402e-07 3.70629e-06 -9.52327e-06)
(-2.07761e-07 3.73215e-06 -9.42526e-06)
(5.13615e-07 4.59573e-06 -9.57377e-06)
(5.60861e-07 4.21589e-06 -9.35751e-06)
(7.60738e-08 4.03445e-06 -9.33733e-06)
(-6.91998e-08 4.0301e-06 -9.33759e-06)
(-5.86529e-07 3.86656e-06 -9.34481e-06)
(-8.80429e-07 3.43178e-06 -9.4058e-06)
(2.1658e-07 3.57843e-06 -9.55455e-06)
(5.94713e-07 4.04701e-06 -9.43637e-06)
(-1.19206e-06 3.5025e-06 -9.06428e-06)
(-1.04605e-05 3.49429e-06 -7.02997e-06)
(1.02955e-05 1.95e-06 -6.98488e-06)
(1.29245e-06 2.80208e-06 -9.19625e-06)
(4.13847e-07 2.37781e-06 -9.48225e-06)
(-2.5882e-07 2.03746e-06 -9.48831e-06)
(6.37539e-08 2.18908e-06 -9.45172e-06)
(1.29505e-07 2.6969e-06 -9.48583e-06)
(4.96143e-08 2.18922e-06 -9.47953e-06)
(2.03649e-07 2.52336e-06 -9.48151e-06)
(-2.46103e-07 2.56901e-06 -9.47739e-06)
(-4.82738e-07 1.79884e-06 -9.46257e-06)
(-3.37807e-07 2.79343e-06 -9.63553e-06)
(-3.74859e-08 3.45087e-06 -9.56286e-06)
(4.91392e-07 2.47133e-06 -9.64063e-06)
(-1.17235e-07 2.47796e-06 -9.48809e-06)
(-5.15084e-07 2.32372e-06 -9.61162e-06)
(4.95397e-07 2.32834e-06 -9.61194e-06)
(-1.67435e-07 2.50217e-06 -9.48937e-06)
(-2.35204e-07 1.73619e-06 -9.5501e-06)
(3.22446e-07 1.72262e-06 -9.46963e-06)
(-1.58854e-07 2.79866e-06 -9.63577e-06)
(4.54999e-07 3.57434e-06 -9.55689e-06)
(5.6507e-07 2.7591e-06 -9.48349e-06)
(6.17187e-08 2.55068e-06 -9.47626e-06)
(-8.22662e-08 2.56536e-06 -9.47543e-06)
(-5.36718e-07 2.38007e-06 -9.48262e-06)
(-8.49052e-07 2.5182e-06 -9.63726e-06)
(1.41607e-07 3.37077e-06 -9.719e-06)
(5.1909e-07 2.00079e-06 -9.47586e-06)
(-1.27405e-06 1.68821e-06 -9.16606e-06)
(-1.0882e-05 1.78291e-06 -6.97104e-06)
(1.07574e-05 1.19718e-06 -7.00858e-06)
(1.35849e-06 2.69554e-06 -9.30421e-06)
(1.94809e-07 1.37498e-06 -9.54151e-06)
(-3.2608e-07 6.34369e-07 -9.5405e-06)
(1.40722e-07 1.95473e-06 -9.502e-06)
(1.40712e-07 1.67395e-06 -9.54606e-06)
(3.33927e-08 4.48621e-07 -9.53667e-06)
(2.77741e-07 1.45495e-06 -9.54827e-06)
(-3.42516e-07 1.66992e-06 -9.54681e-06)
(-5.14249e-07 1.8014e-06 -9.5137e-06)
(-3.92099e-08 7.37738e-07 -9.56987e-06)
(-7.93592e-08 3.15132e-06 -9.67101e-06)
(2.94057e-07 1.38385e-07 -9.57802e-06)
(-1.4122e-07 1.58771e-06 -9.55063e-06)
(-6.03979e-07 1.53145e-06 -9.54186e-06)
(5.91598e-07 1.53567e-06 -9.54179e-06)
(-8.71531e-08 1.68424e-06 -9.55421e-06)
(-3.47308e-07 2.15463e-06 -9.6422e-06)
(3.0819e-07 1.78707e-06 -9.51884e-06)
(1.5656e-07 7.44616e-07 -9.56969e-06)
(5.03824e-07 3.28796e-06 -9.66856e-06)
(3.57948e-07 1.8202e-06 -9.55072e-06)
(4.20866e-08 1.56099e-06 -9.54698e-06)
(-1.00056e-07 1.61644e-06 -9.54589e-06)
(-5.94708e-07 1.3484e-06 -9.55098e-06)
(-6.85587e-07 3.84553e-07 -9.57541e-06)
(1.16323e-07 2.21042e-06 -9.71179e-06)
(2.80103e-07 2.87615e-07 -9.53856e-06)
(-1.3726e-06 2.39694e-07 -9.27342e-06)
(-1.14359e-05 4.28668e-07 -6.89726e-06)
(1.11821e-05 6.26278e-07 -6.98911e-06)
(1.40969e-06 1.59542e-06 -9.29276e-06)
(-2.0074e-08 6.13072e-07 -9.57644e-06)
(-1.48937e-07 -6.96358e-07 -9.55226e-06)
(2.6981e-07 2.19344e-06 -9.64371e-06)
(-1.71808e-07 1.01848e-06 -9.58844e-06)
(7.40272e-09 -1.26669e-06 -9.5572e-06)
(4.48488e-07 7.03162e-07 -9.59044e-06)
(-1.7527e-07 1.09814e-06 -9.5915e-06)
(-6.70803e-07 2.2271e-06 -9.64588e-06)
(-6.78487e-08 4.40781e-07 -9.54535e-06)
(-1.57346e-07 1.95724e-06 -9.64212e-06)
(1.79096e-07 -6.08401e-07 -9.54355e-06)
(1.63365e-07 1.07193e-06 -9.59036e-06)
(-5.25716e-07 2.77336e-06 -9.63201e-06)
(5.26981e-07 2.77673e-06 -9.63149e-06)
(-4.33807e-08 1.17962e-06 -9.59459e-06)
(-2.15422e-07 1.33516e-06 -9.67178e-06)
(3.81585e-08 2.24934e-06 -9.64891e-06)
(1.40718e-07 4.48616e-07 -9.54466e-06)
(6.70533e-07 2.07385e-06 -9.64246e-06)
(2.19294e-07 1.18432e-06 -9.59191e-06)
(2.24416e-08 8.61964e-07 -9.59126e-06)
(-1.23768e-07 9.9617e-07 -9.5889e-06)
(-7.84345e-07 6.0494e-07 -9.59257e-06)
(-6.78874e-07 -3.55609e-08 -9.55034e-06)
(1.33238e-07 1.6072e-06 -9.63306e-06)
(1.52028e-07 -1.41029e-06 -9.57753e-06)
(-1.47957e-06 -1.02781e-06 -9.51859e-06)
(-1.22526e-05 -8.22639e-07 -6.669e-06)
(1.16424e-05 1.24054e-07 -6.91526e-06)
(1.45587e-06 8.86605e-07 -9.3432e-06)
(-2.81979e-07 -2.04264e-08 -9.60021e-06)
(-1.52997e-08 -5.09418e-07 -9.55556e-06)
(4.83146e-07 1.26914e-06 -9.65325e-06)
(-5.50806e-07 6.08008e-07 -9.61735e-06)
(-2.92502e-08 -1.58719e-06 -9.55929e-06)
(7.50032e-07 1.52803e-07 -9.61882e-06)
(-3.81408e-08 7.04942e-07 -9.62052e-06)
(-6.45928e-07 1.4473e-06 -9.65136e-06)
(-9.21914e-08 1.88683e-06 -9.62691e-06)
(-2.89065e-07 1.27118e-06 -9.63443e-06)
(1.16423e-07 1.8459e-07 -9.59845e-06)
(5.34928e-07 7.66271e-07 -9.61918e-06)
(-2.63216e-07 2.87744e-06 -9.69589e-06)
(2.73399e-07 2.87866e-06 -9.69546e-06)
(-3.75635e-07 8.31159e-07 -9.62209e-06)
(-1.34114e-07 7.6015e-07 -9.61024e-06)
(1.31097e-07 1.5019e-06 -9.65236e-06)
(1.22598e-07 1.89434e-06 -9.62627e-06)
(6.51134e-07 1.32306e-06 -9.63528e-06)
(1.14969e-07 7.5367e-07 -9.61876e-06)
(4.77707e-09 3.06606e-07 -9.62077e-06)
(-1.51303e-07 5.91216e-07 -9.6168e-06)
(-8.01851e-07 -1.99574e-08 -9.6166e-06)
(-4.85347e-07 1.22886e-06 -9.63204e-06)
(-1.47129e-07 1.46342e-06 -9.67577e-06)
(-2.1907e-07 -1.7038e-06 -9.61059e-06)
(-1.56648e-06 -6.1085e-07 -1.00337e-05)
(-1.32406e-05 -1.05491e-06 -6.2612e-06)
(1.21776e-05 -3.57854e-07 -6.75584e-06)
(1.49884e-06 4.98987e-07 -9.52075e-06)
(-3.15355e-07 -6.23856e-07 -9.61303e-06)
(1.04363e-07 1.27966e-06 -9.61838e-06)
(4.92814e-07 6.40538e-07 -9.65631e-06)
(-7.42476e-07 3.79977e-07 -9.63658e-06)
(-8.35657e-08 -5.45964e-07 -9.60436e-06)
(9.06086e-07 -3.25015e-07 -9.63387e-06)
(8.31714e-08 4.38682e-07 -9.63865e-06)
(-4.34374e-07 9.10642e-07 -9.65187e-06)
(-1.02475e-07 1.96988e-06 -9.69326e-06)
(-4.97691e-07 8.623e-07 -9.64346e-06)
(7.7657e-08 1.01585e-06 -9.63048e-06)
(7.01279e-07 5.46037e-07 -9.63917e-06)
(-1.03562e-07 1.80358e-06 -9.67835e-06)
(1.18197e-07 1.80082e-06 -9.67787e-06)
(-4.66619e-07 5.5981e-07 -9.64189e-06)
(-8.16021e-08 2.05694e-06 -9.64026e-06)
(2.65077e-07 1.01004e-06 -9.6527e-06)
(1.0577e-07 1.97532e-06 -9.69255e-06)
(4.42528e-07 8.38561e-07 -9.64376e-06)
(1.56712e-08 4.66e-07 -9.63622e-06)
(-1.0053e-08 -2.30258e-07 -9.63589e-06)
(-1.89179e-07 3.40894e-07 -9.63461e-06)
(-6.57345e-07 -6.81674e-07 -9.62165e-06)
(-3.82181e-07 9.86867e-07 -9.69257e-06)
(-4.43585e-07 2.1965e-08 -9.6535e-06)
(-2.38697e-07 -6.70244e-07 -9.66359e-06)
(-1.63677e-06 -3.21468e-08 -1.03216e-05)
(-1.4038e-05 -3.29657e-07 -6.08594e-06)
(1.25666e-05 2.33182e-07 -6.56222e-06)
(1.51499e-06 3.86487e-07 -9.80584e-06)
(-1.37676e-07 3.15721e-07 -9.60967e-06)
(2.34479e-07 1.63832e-06 -9.6799e-06)
(3.02933e-07 1.18951e-07 -9.66329e-06)
(-7.87779e-07 2.54684e-07 -9.6491e-06)
(-1.70248e-07 3.96065e-07 -9.62788e-06)
(9.46518e-07 -8.41656e-07 -9.63377e-06)
(2.08728e-07 2.70951e-07 -9.64982e-06)
(-3.39775e-07 5.31093e-07 -9.65653e-06)
(-1.01593e-07 6.81743e-07 -9.69163e-06)
(-4.79631e-07 5.72284e-07 -9.65431e-06)
(5.29422e-08 2.03469e-06 -9.65429e-06)
(6.9207e-07 3.56686e-07 -9.65308e-06)
(-1.2389e-08 1.09362e-06 -9.66802e-06)
(2.48427e-08 1.08665e-06 -9.66741e-06)
(-3.24139e-07 2.78e-07 -9.6561e-06)
(-4.41917e-08 2.08941e-06 -9.69016e-06)
(1.14674e-07 6.34177e-07 -9.65805e-06)
(8.87194e-08 6.84748e-07 -9.69081e-06)
(3.49503e-07 4.89629e-07 -9.65363e-06)
(-9.89232e-08 2.85298e-07 -9.64737e-06)
(-2.03024e-08 -8.2041e-07 -9.63521e-06)
(-2.41713e-07 2.26187e-07 -9.64646e-06)
(-6.73106e-07 2.04622e-07 -9.61059e-06)
(-3.44456e-07 -7.5713e-07 -9.67339e-06)
(-4.72615e-07 3.18653e-07 -9.62809e-06)
(-2.16915e-07 2.33354e-07 -9.69445e-06)
(-1.64372e-06 6.55268e-07 -1.03238e-05)
(-1.41503e-05 3.39513e-07 -6.07287e-06)
(1.22695e-05 8.6805e-07 -6.77568e-06)
(1.52324e-06 3.67879e-07 -9.53584e-06)
(-6.77013e-08 1.25876e-06 -9.65569e-06)
(6.41353e-08 5.85284e-07 -9.68443e-06)
(2.16051e-07 -4.57377e-07 -9.66663e-06)
(-6.86904e-07 1.78016e-07 -9.65716e-06)
(-3.02838e-07 1.42111e-06 -9.64514e-06)
(8.80867e-07 1.76325e-07 -9.61537e-06)
(3.57612e-07 1.92722e-07 -9.65716e-06)
(-3.52248e-07 2.61849e-07 -9.66102e-06)
(-9.41402e-08 -5.20422e-07 -9.68625e-06)
(-2.2696e-07 3.28575e-07 -9.66141e-06)
(3.44535e-08 1.74119e-06 -9.69281e-06)
(5.12867e-07 1.30321e-07 -9.66279e-06)
(4.23984e-08 6.43912e-07 -9.66602e-06)
(-4.48535e-08 6.34071e-07 -9.66531e-06)
(-2.6604e-07 -6.69855e-08 -9.66493e-06)
(-1.04091e-08 8.24625e-07 -9.69099e-06)
(-1.58086e-08 3.20045e-07 -9.66288e-06)
(7.70373e-08 -5.19778e-07 -9.68556e-06)
(3.62755e-07 2.38298e-07 -9.65993e-06)
(-2.4637e-07 1.99193e-07 -9.65491e-06)
(-2.19182e-08 1.37346e-07 -9.61561e-06)
(1.58456e-08 1.99505e-07 -9.6552e-06)
(-8.54222e-07 1.1716e-06 -9.66232e-06)
(-3.59275e-07 -9.38792e-07 -9.63257e-06)
(-2.44308e-07 7.30321e-07 -9.67157e-06)
(-1.71039e-07 1.09888e-06 -9.69389e-06)
(-1.60615e-06 1.43099e-06 -1.02031e-05)
(-1.39503e-05 1.01676e-06 -6.22866e-06)
(1.18567e-05 5.19802e-07 -6.92709e-06)
(1.49891e-06 2.86262e-07 -9.36806e-06)
(-8.82954e-08 7.17521e-07 -9.65628e-06)
(-1.07402e-07 -3.9372e-07 -9.68064e-06)
(2.21492e-07 -1.14494e-06 -9.66013e-06)
(-4.12038e-07 1.09966e-07 -9.66181e-06)
(-1.70511e-07 1.03321e-06 -9.67931e-06)
(7.00771e-07 1.17448e-06 -9.6623e-06)
(2.25735e-07 1.49972e-07 -9.66256e-06)
(-4.82411e-07 8.31236e-08 -9.66301e-06)
(-8.82181e-08 -1.8479e-06 -9.67349e-06)
(-2.72991e-08 1.26757e-07 -9.66409e-06)
(1.32746e-08 1.25186e-07 -9.68256e-06)
(4.72604e-07 -1.66818e-07 -9.66856e-06)
(8.83657e-08 3.52089e-07 -9.66692e-06)
(-1.1731e-07 3.43989e-07 -9.66589e-06)
(-2.86025e-07 -5.02358e-07 -9.66634e-06)
(3.32e-08 -2.71343e-07 -9.68535e-06)
(-1.54187e-07 8.47968e-08 -9.66465e-06)
(7.24314e-08 -1.84913e-06 -9.67296e-06)
(4.93347e-07 7.01131e-08 -9.66235e-06)
(-1.19047e-07 1.51804e-07 -9.66055e-06)
(-2.02684e-08 1.1183e-06 -9.66144e-06)
(-3.49916e-08 1.70503e-07 -9.66149e-06)
(-9.00765e-07 6.99489e-07 -9.67119e-06)
(-4.32754e-07 3.3642e-07 -9.64235e-06)
(-6.77305e-08 -4.03464e-07 -9.66882e-06)
(-8.6713e-08 3.75347e-07 -9.70671e-06)
(-1.52773e-06 7.01179e-07 -9.86684e-06)
(-1.3377e-05 7.17797e-07 -6.51146e-06)
(1.15848e-05 2.60434e-07 -6.99525e-06)
(1.47023e-06 1.74107e-07 -9.31126e-06)
(-1.95625e-07 3.27322e-07 -9.65156e-06)
(-3.06117e-07 -1.41398e-06 -9.66643e-06)
(3.16814e-07 -3.39903e-07 -9.63043e-06)
(-2.51326e-07 7.69016e-08 -9.66473e-06)
(-8.99335e-08 8.35647e-07 -9.65412e-06)
(7.04249e-07 6.47009e-07 -9.67327e-06)
(1.39349e-07 9.35505e-08 -9.66637e-06)
(-7.51817e-07 4.04353e-09 -9.66312e-06)
(-8.54037e-08 -1.8578e-06 -9.63022e-06)
(1.67663e-07 3.52111e-08 -9.66436e-06)
(-2.42539e-08 3.07395e-07 -9.64777e-06)
(5.58264e-07 -5.40755e-07 -9.66888e-06)
(1.44576e-07 1.55729e-07 -9.66782e-06)
(-2.1573e-07 1.61668e-07 -9.66661e-06)
(-3.89106e-07 -1.03268e-06 -9.65708e-06)
(1.07016e-07 -1.37304e-06 -9.67e-06)
(-3.31363e-07 -3.34702e-08 -9.66384e-06)
(7.41153e-08 -1.85925e-06 -9.62995e-06)
(7.62959e-07 -2.51551e-09 -9.66257e-06)
(-3.67318e-08 9.33509e-08 -9.66447e-06)
(-1.81985e-08 5.96605e-07 -9.67163e-06)
(-6.7951e-08 1.10366e-07 -9.66533e-06)
(-8.2099e-07 3.52656e-07 -9.67259e-06)
(-5.80023e-07 -6.4892e-08 -9.67762e-06)
(-2.40641e-07 7.20213e-08 -9.64018e-06)
(3.60521e-08 -2.57893e-07 -9.66247e-06)
(-1.38701e-06 -1.38035e-08 -9.90832e-06)
(-1.29672e-05 5.56301e-07 -6.53285e-06)
(1.14619e-05 7.74355e-08 -7.0179e-06)
(1.45083e-06 5.61218e-08 -9.29854e-06)
(-3.99852e-07 8.65036e-08 -9.6478e-06)
(-2.3905e-07 -9.73497e-07 -9.62268e-06)
(5.19706e-07 4.21451e-07 -9.66508e-06)
(-1.76974e-07 4.21341e-08 -9.66668e-06)
(-5.64883e-08 7.93377e-07 -9.68854e-06)
(5.52358e-07 2.08468e-07 -9.67653e-06)
(9.71622e-08 3.30955e-08 -9.6681e-06)
(-8.72646e-07 4.03923e-09 -9.66274e-06)
(-8.19762e-08 -5.42422e-07 -9.62155e-06)
(4.05748e-07 2.07677e-08 -9.66435e-06)
(-1.01904e-07 6.02258e-07 -9.6794e-06)
(4.42267e-07 -1.03795e-06 -9.66037e-06)
(2.28867e-07 2.13694e-08 -9.66769e-06)
(-3.54982e-07 6.25147e-08 -9.66732e-06)
(-5.92964e-07 3.64146e-09 -9.6234e-06)
(2.3304e-07 -9.56961e-07 -9.62553e-06)
(-2.51411e-07 -2.13662e-08 -9.66245e-06)
(7.86199e-08 -5.43265e-07 -9.62172e-06)
(8.83845e-07 1.86757e-09 -9.66223e-06)
(7.73805e-10 3.24791e-08 -9.66637e-06)
(-1.6877e-08 1.81967e-07 -9.67435e-06)
(-8.37984e-08 3.90822e-08 -9.66715e-06)
(-9.35795e-07 1.10056e-07 -9.67194e-06)
(-4.8899e-07 -5.06223e-07 -9.64559e-06)
(-1.09977e-07 5.82244e-07 -9.67549e-06)
(-1.16147e-07 7.77883e-07 -9.65947e-06)
(-1.23781e-06 -7.63283e-07 -9.60135e-06)
(-1.24092e-05 5.13582e-07 -6.76237e-06)
(1.14614e-05 -8.24787e-08 -7.01803e-06)
(1.45088e-06 -6.22051e-08 -9.29853e-06)
(-3.99404e-07 -8.88263e-08 -9.64781e-06)
(-2.38523e-07 9.77056e-07 -9.62267e-06)
(5.1995e-07 -4.12321e-07 -9.66505e-06)
(-1.76965e-07 -3.31856e-08 -9.66666e-06)
(-5.66597e-08 -7.83956e-07 -9.68851e-06)
(5.52212e-07 -2.03205e-07 -9.67651e-06)
(9.84834e-08 -2.71791e-08 -9.66808e-06)
(-8.66897e-07 2.81791e-08 -9.66265e-06)
(-8.20447e-08 6.71523e-07 -9.62102e-06)
(3.96605e-07 9.71941e-09 -9.66443e-06)
(-2.35983e-07 -6.41217e-07 -9.67895e-06)
(4.42102e-07 -4.89693e-08 -9.62554e-06)
(3.64684e-07 -6.3588e-08 -9.66709e-06)
(-2.19258e-07 -2.18822e-08 -9.66791e-06)
(-5.92989e-07 1.07968e-06 -9.65822e-06)
(1.02007e-07 9.96818e-07 -9.62597e-06)
(-2.48631e-07 5.01961e-08 -9.6622e-06)
(7.87529e-08 6.71031e-07 -9.62117e-06)
(8.78093e-07 2.97386e-08 -9.66214e-06)
(-7.18758e-10 -2.80504e-08 -9.66635e-06)
(-1.68866e-08 -1.81059e-07 -9.67434e-06)
(-8.23448e-08 -3.47725e-08 -9.66713e-06)
(-9.30042e-07 -7.90714e-08 -9.67184e-06)
(-4.85618e-07 6.34186e-07 -9.64485e-06)
(1.46088e-08 -5.07544e-07 -9.6751e-06)
(-2.39587e-07 2.9978e-07 -9.70349e-06)
(-1.36455e-06 -1.06114e-07 -9.56595e-06)
(-1.22667e-05 -5.08542e-07 -6.75815e-06)
(1.15832e-05 -2.66456e-07 -6.99565e-06)
(1.4704e-06 -1.81774e-07 -9.31124e-06)
(-1.94169e-07 -3.3023e-07 -9.65158e-06)
(-3.04406e-07 1.41826e-06 -9.6664e-06)
(3.17598e-07 3.51148e-07 -9.63033e-06)
(-2.51299e-07 -6.61806e-08 -9.66465e-06)
(-9.04913e-08 -8.24109e-07 -9.65401e-06)
(7.03724e-07 -6.40882e-07 -9.67322e-06)
(1.43456e-07 -8.74387e-08 -9.66631e-06)
(-7.32894e-07 3.17616e-08 -9.66284e-06)
(-8.56495e-08 2.02314e-06 -9.62838e-06)
(1.43224e-07 -1.01005e-09 -9.66432e-06)
(-1.13636e-07 -3.11793e-07 -9.64693e-06)
(5.57804e-07 9.55806e-07 -9.65791e-06)
(2.34303e-07 -1.63552e-07 -9.6668e-06)
(-1.26317e-07 -1.55615e-07 -9.66763e-06)
(-3.89221e-07 6.13106e-07 -9.66806e-06)
(2.71441e-08 1.37645e-06 -9.67082e-06)
(-3.16578e-07 6.48728e-08 -9.66336e-06)
(7.45165e-08 2.02311e-06 -9.62806e-06)
(7.44023e-07 3.77043e-08 -9.66229e-06)
(-4.13956e-08 -8.8888e-08 -9.66441e-06)
(-1.82281e-08 -5.95733e-07 -9.6716e-06)
(-6.34105e-08 -1.06041e-07 -9.66527e-06)
(-8.02043e-07 -3.18254e-07 -9.67229e-06)
(-5.74647e-07 2.28233e-07 -9.6755e-06)
(-1.75186e-07 -2.90062e-08 -9.64054e-06)
(-3.10745e-08 -1.2088e-07 -9.67794e-06)
(-1.47004e-06 5.77971e-07 -9.89377e-06)
(-1.28744e-05 -5.13216e-07 -6.53282e-06)
(1.18536e-05 -5.27966e-07 -6.92786e-06)
(1.4992e-06 -2.97523e-07 -9.36805e-06)
(-8.54661e-08 -7.2174e-07 -9.65633e-06)
(-1.04086e-07 3.99619e-07 -9.68057e-06)
(2.22977e-07 1.16093e-06 -9.65991e-06)
(-4.11993e-07 -9.53573e-08 -9.66165e-06)
(-1.71596e-07 -1.01692e-06 -9.67909e-06)
(6.9957e-07 -1.16646e-06 -9.6622e-06)
(2.33027e-07 -1.43562e-07 -9.66246e-06)
(-4.44781e-07 -4.07227e-08 -9.66253e-06)
(-8.85748e-08 2.09637e-06 -9.66935e-06)
(-7.03597e-08 -8.52657e-08 -9.66377e-06)
(-4.46067e-08 -1.14846e-07 -9.68201e-06)
(4.7178e-07 4.45534e-07 -9.66603e-06)
(1.42409e-07 -3.45828e-07 -9.66631e-06)
(-6.39157e-08 -3.52396e-07 -9.6665e-06)
(-2.86564e-07 2.17104e-07 -9.66889e-06)
(-7.63798e-09 2.55525e-07 -9.68591e-06)
(-1.19334e-07 -4.94271e-08 -9.66409e-06)
(7.33024e-08 2.09574e-06 -9.66878e-06)
(4.55697e-07 -2.83266e-08 -9.66187e-06)
(-1.27419e-07 -1.47376e-07 -9.66044e-06)
(-2.03208e-08 -1.11751e-06 -9.66139e-06)
(-2.68543e-08 -1.66251e-07 -9.66139e-06)
(-8.63248e-07 -6.58875e-07 -9.6707e-06)
(-4.27664e-07 -9.22616e-08 -9.63807e-06)
(-5.12489e-08 4.36613e-07 -9.66892e-06)
(-1.04574e-07 -5.95368e-07 -9.70999e-06)
(-1.57849e-06 -2.06682e-07 -9.8608e-06)
(-1.33674e-05 -6.47602e-07 -6.50688e-06)
(1.22642e-05 -8.79912e-07 -6.777e-06)
(1.52363e-06 -3.85731e-07 -9.53587e-06)
(-6.27822e-08 -1.26532e-06 -9.65576e-06)
(6.98764e-08 -5.76566e-07 -9.68431e-06)
(2.18538e-07 4.81953e-07 -9.66622e-06)
(-6.86844e-07 -1.56664e-07 -9.65689e-06)
(-3.04714e-07 -1.39626e-06 -9.64473e-06)
(8.78387e-07 -1.65036e-07 -9.6152e-06)
(3.68625e-07 -1.86092e-07 -9.657e-06)
(-2.8488e-07 -2.11655e-07 -9.66038e-06)
(-9.45334e-08 9.23374e-07 -9.67763e-06)
(-2.98991e-07 -2.7867e-07 -9.66084e-06)
(-7.45433e-09 -1.72713e-06 -9.69257e-06)
(5.11621e-07 3.24178e-08 -9.66402e-06)
(7.47281e-08 -6.34211e-07 -9.66585e-06)
(-1.37282e-08 -6.46498e-07 -9.66548e-06)
(-2.67631e-07 -1.05768e-07 -9.66376e-06)
(-2.61585e-08 -8.52797e-07 -9.69132e-06)
(5.14505e-08 -2.80827e-07 -9.66229e-06)
(7.87086e-08 9.20263e-07 -9.67692e-06)
(2.95367e-07 -1.88685e-07 -9.65927e-06)
(-2.59249e-07 -1.95067e-07 -9.65475e-06)
(-2.19973e-08 -1.36668e-07 -9.61553e-06)
(2.8325e-08 -1.95605e-07 -9.65505e-06)
(-7.8735e-07 -1.12381e-06 -9.66166e-06)
(-3.55412e-07 1.33398e-06 -9.62395e-06)
(-2.7106e-07 -6.97678e-07 -9.67115e-06)
(-1.42917e-07 -1.18754e-06 -9.69217e-06)
(-1.64158e-06 -9.02272e-07 -1.02017e-05)
(-1.40411e-05 -9.25028e-07 -6.21185e-06)
(1.25573e-05 -2.50953e-07 -6.56442e-06)
(1.51541e-06 -4.15767e-07 -9.80592e-06)
(-1.29401e-07 -3.262e-07 -9.60978e-06)
(2.44078e-07 -1.625e-06 -9.67971e-06)
(3.06921e-07 -7.98218e-08 -9.66255e-06)
(-7.87707e-07 -2.22472e-07 -9.64866e-06)
(-1.73362e-07 -3.56703e-07 -9.62714e-06)
(9.41667e-07 8.58198e-07 -9.6335e-06)
(2.23818e-07 -2.64403e-07 -9.64955e-06)
(-2.2285e-07 -4.76602e-07 -9.65593e-06)
(-1.0197e-07 -7.47137e-09 -9.67552e-06)
(-6.00431e-07 -5.17666e-07 -9.65374e-06)
(1.76595e-08 -2.02182e-06 -9.65413e-06)
(6.90409e-07 -2.61337e-07 -9.65468e-06)
(6.65118e-09 -1.08456e-06 -9.66806e-06)
(4.17459e-08 -1.09923e-06 -9.66738e-06)
(-3.2785e-07 -3.88919e-07 -9.65459e-06)
(-4.26394e-08 -2.13179e-06 -9.69053e-06)
(2.3527e-07 -5.96368e-07 -9.65762e-06)
(9.16717e-08 -1.37787e-08 -9.67471e-06)
(2.32567e-07 -4.35601e-07 -9.65301e-06)
(-1.17101e-07 -2.81981e-07 -9.64711e-06)
(-2.04122e-08 8.20943e-07 -9.63508e-06)
(-2.2418e-07 -2.23149e-07 -9.6462e-06)
(-5.57417e-07 -1.53394e-07 -9.61e-06)
(-3.42443e-07 1.41857e-06 -9.65739e-06)
(-5.52016e-07 -2.90127e-07 -9.62747e-06)
(-1.31147e-07 -2.42697e-07 -9.6908e-06)
(-1.67331e-06 7.84627e-08 -1.03235e-05)
(-1.43672e-05 -2.29043e-07 -6.04033e-06)
(1.21612e-05 3.30983e-07 -6.75952e-06)
(1.49908e-06 -5.47816e-07 -9.52068e-06)
(-3.0156e-07 6.06984e-07 -9.61314e-06)
(1.20232e-07 -1.25905e-06 -9.61815e-06)
(4.99082e-07 -5.77158e-07 -9.65524e-06)
(-7.42404e-07 -3.30808e-07 -9.63601e-06)
(-8.86235e-08 6.09447e-07 -9.60329e-06)
(8.96969e-07 3.49745e-07 -9.63351e-06)
(1.01765e-07 -4.32611e-07 -9.63816e-06)
(-2.33428e-07 -8.66276e-07 -9.65188e-06)
(-1.02799e-07 -8.89611e-07 -9.67296e-06)
(-7.01954e-07 -8.17512e-07 -9.64349e-06)
(4.39296e-08 -1.0062e-06 -9.63013e-06)
(6.99309e-07 -4.89899e-07 -9.6402e-06)
(-9.27767e-08 -1.79629e-06 -9.67843e-06)
(1.25298e-07 -1.81259e-06 -9.67782e-06)
(-4.74274e-07 -6.40095e-07 -9.64096e-06)
(-6.76125e-08 -2.12209e-06 -9.6407e-06)
(4.75091e-07 -9.90797e-07 -9.65296e-06)
(1.10717e-07 -8.99421e-07 -9.67227e-06)
(2.41593e-07 -7.94362e-07 -9.64376e-06)
(-7.92792e-09 -4.6409e-07 -9.63575e-06)
(-1.01947e-08 2.30658e-07 -9.6357e-06)
(-1.66586e-07 -3.39285e-07 -9.63414e-06)
(-4.58928e-07 7.21657e-07 -9.62167e-06)
(-3.82972e-07 7.28994e-08 -9.67244e-06)
(-6.0348e-07 -1.78106e-08 -9.65321e-06)
(-6.44613e-08 7.03281e-07 -9.65544e-06)
(-1.66445e-06 1.14034e-06 -1.03262e-05)
(-1.44164e-05 4.52123e-07 -6.0403e-06)
(1.16129e-05 -1.64611e-07 -6.92138e-06)
(1.45549e-06 -9.68933e-07 -9.34185e-06)
(-2.59015e-07 -6.74733e-09 -9.60016e-06)
(1.08333e-08 5.41441e-07 -9.55542e-06)
(4.92863e-07 -1.16543e-06 -9.65266e-06)
(-5.50758e-07 -5.32804e-07 -9.61689e-06)
(-3.73336e-08 1.69071e-06 -9.5587e-06)
(7.33466e-07 -1.15527e-07 -9.61848e-06)
(-1.91636e-08 -6.99252e-07 -9.61969e-06)
(-3.14103e-07 -1.44716e-06 -9.65252e-06)
(-9.24309e-08 -1.89067e-06 -9.66723e-06)
(-6.23945e-07 -1.27029e-06 -9.6356e-06)
(8.34454e-08 -1.78457e-07 -9.59779e-06)
(5.32844e-07 -7.3303e-07 -9.61969e-06)
(-2.57689e-07 -2.87179e-06 -9.69597e-06)
(2.72723e-07 -2.88981e-06 -9.69546e-06)
(-3.90311e-07 -9.01574e-07 -9.62157e-06)
(-1.12665e-07 -8.63655e-07 -9.6099e-06)
(4.80174e-07 -1.53954e-06 -9.65372e-06)
(1.30608e-07 -1.90378e-06 -9.66666e-06)
(3.19355e-07 -1.32245e-06 -9.63644e-06)
(8.80034e-08 -7.53214e-07 -9.61799e-06)
(4.61046e-09 -3.06271e-07 -9.62054e-06)
(-1.2586e-07 -5.91003e-07 -9.61605e-06)
(-4.74725e-07 1.43708e-08 -9.61779e-06)
(-4.90797e-07 -1.26489e-06 -9.67245e-06)
(-4.30883e-07 -1.52909e-06 -9.67572e-06)
(9.20601e-08 1.74094e-06 -9.59456e-06)
(-1.59541e-06 6.95295e-07 -1.0098e-05)
(-1.37981e-05 1.174e-06 -6.21305e-06)
(1.11289e-05 -6.86961e-07 -6.99937e-06)
(1.40787e-06 -1.73555e-06 -9.28673e-06)
(1.81122e-08 -6.56661e-07 -9.57594e-06)
(-1.06032e-07 7.46063e-07 -9.55244e-06)
(2.84646e-07 -2.02238e-06 -9.64654e-06)
(-1.71827e-07 -9.03855e-07 -9.58843e-06)
(-5.29325e-09 1.43699e-06 -9.56001e-06)
(4.19305e-07 -6.4698e-07 -9.59032e-06)
(-1.64115e-07 -1.0928e-06 -9.5906e-06)
(-4.71352e-07 -2.27116e-06 -9.64737e-06)
(-6.79642e-08 -1.52168e-06 -9.57854e-06)
(-3.59859e-07 -1.99998e-06 -9.64363e-06)
(1.51868e-07 6.11304e-07 -9.5429e-06)
(1.61351e-07 -1.05206e-06 -9.59059e-06)
(-5.23668e-07 -2.76872e-06 -9.63207e-06)
(5.1883e-07 -2.78768e-06 -9.63162e-06)
(-7.01379e-08 -1.2563e-06 -9.59414e-06)
(-1.94889e-07 -1.50395e-06 -9.66799e-06)
(2.67883e-07 -2.35014e-06 -9.65039e-06)
(1.53359e-07 -1.53636e-06 -9.57803e-06)
(4.71174e-07 -2.1162e-06 -9.64396e-06)
(1.95604e-07 -1.18525e-06 -9.59118e-06)
(2.22726e-08 -8.61629e-07 -9.59104e-06)
(-1.023e-07 -9.97099e-07 -9.58821e-06)
(-5.93123e-07 -6.56134e-07 -9.59423e-06)
(-6.9235e-07 -1.09574e-06 -9.58327e-06)
(-1.1428e-08 -1.7631e-06 -9.63031e-06)
(3.59192e-07 1.46265e-06 -9.575e-06)
(-1.49709e-06 1.17217e-07 -9.57035e-06)
(-1.26801e-05 9.65889e-07 -6.61654e-06)
(1.06626e-05 -1.28668e-06 -7.02635e-06)
(1.354e-06 -2.9358e-06 -9.28853e-06)
(2.57979e-07 -1.44427e-06 -9.54087e-06)
(-2.56081e-07 -5.57678e-07 -9.5406e-06)
(1.62883e-07 -1.6707e-06 -9.51246e-06)
(1.40558e-07 -1.50074e-06 -9.54558e-06)
(1.39086e-08 -1.66412e-07 -9.54712e-06)
(2.27486e-07 -1.37083e-06 -9.54796e-06)
(-3.43281e-07 -1.66518e-06 -9.54605e-06)
(-3.99412e-07 -1.85581e-06 -9.51435e-06)
(-3.91399e-08 -1.40631e-06 -9.57911e-06)
(-1.97444e-07 -3.20337e-06 -9.67166e-06)
(2.73613e-07 -1.38207e-07 -9.57761e-06)
(-1.42913e-07 -1.57559e-06 -9.55073e-06)
(-6.04315e-07 -1.5269e-06 -9.54188e-06)
(5.74946e-07 -1.54653e-06 -9.54207e-06)
(-1.34388e-07 -1.78227e-06 -9.55417e-06)
(-3.30692e-07 -2.4344e-06 -9.63091e-06)
(4.74441e-07 -1.92619e-06 -9.51971e-06)
(1.75977e-07 -1.4209e-06 -9.57923e-06)
(3.89136e-07 -3.33843e-06 -9.66918e-06)
(3.39477e-07 -1.82232e-06 -9.55024e-06)
(4.19622e-08 -1.56059e-06 -9.5468e-06)
(-8.46823e-08 -1.61795e-06 -9.54543e-06)
(-4.93704e-07 -1.41103e-06 -9.55194e-06)
(-7.13327e-07 -1.13166e-06 -9.58449e-06)
(6.99015e-08 -2.45895e-06 -9.70071e-06)
(4.41078e-07 -1.56144e-07 -9.54905e-06)
(-1.37703e-06 -6.96225e-07 -9.29926e-06)
(-1.1762e-05 -1.8459e-07 -6.84923e-06)
(1.01328e-05 -2.07929e-06 -7.0172e-06)
(1.28372e-06 -3.21407e-06 -9.18065e-06)
(5.16841e-07 -2.48611e-06 -9.48492e-06)
(-1.46248e-07 -1.92071e-06 -9.48462e-06)
(9.57536e-08 -1.7169e-06 -9.45809e-06)
(1.29129e-07 -2.43925e-06 -9.47783e-06)
(2.07417e-08 -1.72069e-06 -9.48603e-06)
(1.19203e-07 -2.3992e-06 -9.47763e-06)
(-2.61081e-07 -2.56532e-06 -9.47707e-06)
(-4.17419e-07 -1.84987e-06 -9.46264e-06)
(-3.37473e-07 -3.18713e-06 -9.63329e-06)
(-1.06251e-07 -3.49773e-06 -9.56276e-06)
(4.76956e-07 -2.47284e-06 -9.64043e-06)
(-1.18406e-07 -2.47023e-06 -9.48812e-06)
(-5.17024e-07 -2.31812e-06 -9.61148e-06)