/*--------------------------------*- C++ -*----------------------------------*\
| =========                 |                                                 |
| \\      /  F ield         | OpenFOAM: The Open Source CFD Toolbox           |
|  \\    /   O peration     | Version:  2106                                  |
|   \\  /    A nd           | Website:  www.openfoam.com                      |
|    \\/     M anipulation  |                                                 |
\*---------------------------------------------------------------------------*/
FoamFile
{
    version     2.0;
    format      ascii;
    arch        "LSB;label=32;scalar=64";
    class       volSymmTensorField;
    location    "162";
    object      epsilon;
}
// * * * * * * * * * * * * * * * * * * * * * * * * * * * * * * * * * * * * * //

dimensions      [0 0 0 0 0 0 0];

internalField   nonuniform List<symmTensor> 
9000
(
(-0.0794319 0.002225 -0.00236182 -0.136163 0.00415877 -0.0439627)
(-0.0121928 0.00104952 0.0026858 -0.164633 0.00983881 -0.0423402)
(-0.0022974 0.000584197 0.00153758 -0.166896 0.0110807 -0.0433222)
(-0.000366392 0.00059287 0.000616 -0.169482 0.0116643 -0.0396413)
(0.000750206 0.00012561 0.000368608 -0.173489 0.0844645 -0.0585699)
(4.31467e-05 0.000472264 0.00151877 -0.172128 0.0133793 -0.0343163)
(-1.42365e-05 -6.50525e-05 7.73571e-05 -0.172622 0.0876652 -0.0564752)
(-0.000422352 -0.00104112 -0.00216892 -0.169953 0.0123748 -0.0385553)
(-0.000806646 -0.000649281 -0.00240399 -0.16662 0.0104009 -0.0447368)
(4.86819e-05 -0.000777598 -0.00239401 -0.167357 0.0066357 -0.0472177)
(0.000585444 0.00113441 0.00168732 -0.163395 0.00190755 -0.0376982)
(0.00075381 1.94937e-05 0.0001818 -0.171549 0.0834604 -0.0616551)
(-0.000360605 -0.00070773 -0.000982971 -0.163592 0.00229715 -0.0370099)
(-0.00110297 -0.00059755 -0.00216602 -0.165239 0.00880481 -0.0465531)
(0.000973157 -0.00126485 -0.00325897 -0.161464 -0.0030918 -0.0448226)
(0.000974754 0.00124106 0.00311815 -0.161548 -0.0030589 -0.0446602)
(-0.000867893 0.000437454 0.0010816 -0.165224 0.008531 -0.0471903)
(-0.000322601 -0.000490386 -0.00131362 -0.167327 0.00363219 -0.0513947)
(0.000130966 0.000136559 0.000884728 -0.16642 0.00545617 -0.0491971)
(0.000577171 0.00128018 0.00301953 -0.16339 0.0018743 -0.0376857)
(0.000693597 0.00089098 0.00273628 -0.172261 0.0843738 -0.0605254)
(-0.000506906 -0.000630318 -2.41288e-05 -0.169616 0.0120781 -0.0391604)
(-0.00070392 -5.92291e-05 9.6605e-05 -0.167353 0.0110902 -0.0434632)
(-0.000702038 -4.81959e-05 -0.000592064 -0.167484 0.011086 -0.0432796)
(-0.000622086 -0.000956108 -0.00320133 -0.166759 0.0101259 -0.0444682)
(0.000764006 -0.00113023 -0.00347141 -0.160617 4.5595e-05 -0.0431281)
(0.00117278 0.00180823 0.00382422 -0.163556 -0.000891144 -0.0410049)
(-0.00202654 0.00107061 0.00223261 -0.170449 0.0856234 -0.0590897)
(-0.0166455 -0.000767138 -0.00259356 -0.164359 0.0156378 -0.0386069)
(-0.0829728 0.00159749 -0.0428785 -0.149322 0.0731624 -0.0307614)
(-0.0896245 0.00248918 -0.000674601 -0.0885409 0.0190882 -0.0512991)
(-0.0127434 0.00156107 0.000747487 -0.110587 0.022229 -0.0659607)
(-0.00222387 0.00151028 0.000821576 -0.10862 0.0288074 -0.0698619)
(-0.000321271 0.000397384 -0.00479687 -0.110783 0.030054 -0.0695861)
(0.000950981 0.00024621 -0.000241346 -0.118516 0.0215506 -0.086944)
(0.000149244 0.00144538 0.00115911 -0.112749 0.0328084 -0.0690156)
(0.000170615 -9.96354e-05 0.000535469 -0.12478 0.0310484 -0.0888387)
(-0.000399509 -0.00174979 0.00374804 -0.111182 0.0313991 -0.0694698)
(-0.00108777 -0.00177229 -0.00129976 -0.107883 0.0284999 -0.0701355)
(-0.000173226 -0.000629457 -0.00332919 -0.101948 0.0180429 -0.0683418)
(0.000662944 0.00210761 -0.00409283 -0.0978234 0.0967436 -0.155466)
(0.00109516 2.59583e-05 8.77991e-05 -0.127004 0.0224892 -0.0877133)
(-0.000279177 -0.000700494 0.00467524 -0.0986481 0.0973446 -0.155155)
(-0.0013603 -0.00163274 -0.00111408 -0.106315 0.0261773 -0.0706274)
(0.000974484 -0.00208406 -0.00352302 -0.0890674 0.0847044 -0.154252)
(0.00107206 0.0019946 0.00342462 -0.0891475 0.0847517 -0.154267)
(-0.000958615 -0.000591665 0.00177269 -0.106317 0.0254602 -0.070717)
(-0.000438006 -0.0015195 -0.00102369 -0.106609 0.0106596 -0.0662488)
(-4.35064e-05 0.00219237 -0.000748542 -0.100965 0.015996 -0.0686266)
(0.00068636 0.00241754 -0.00314258 -0.0978064 0.0967003 -0.155502)
(0.00104297 0.000802699 0.00303703 -0.127791 0.0238851 -0.0874252)
(-0.00048147 -0.000570938 0.00535421 -0.11078 0.0309257 -0.0695361)
(-0.000837406 -7.59378e-05 0.000566894 -0.108779 0.0296007 -0.0699716)
(-0.000760473 -9.83335e-05 -0.00043488 -0.108938 0.029546 -0.0700099)
(-0.000736902 -0.000935248 -0.00336183 -0.108154 0.0280548 -0.0703)
(0.000652184 -0.00171783 -0.00418985 -0.0953852 0.0940516 -0.156187)
(0.00130931 0.00231827 -0.00150962 -0.10201 0.0901803 -0.153683)
(-0.00168546 0.00162373 0.00287126 -0.123007 0.0289747 -0.0890486)
(-0.0156574 -0.00110877 -0.00115424 -0.10895 0.034214 -0.0694519)
(-0.0839129 0.00164135 -0.00682222 -0.108199 0.0207721 -0.0644372)
(-0.0965662 0.00167264 0.00110319 -0.0559438 0.0195385 -0.0575153)
(-0.0134031 0.00176605 0.000581427 -0.0644937 0.0160497 -0.0788252)
(-0.00236949 0.00251527 0.00113199 -0.0686516 0.0276968 -0.0821041)
(-0.000420003 0.00145678 -0.005235 -0.0707151 0.0295372 -0.0827398)
(0.00124175 0.00038977 -0.00031815 -0.067352 0.0842768 -0.193237)
(0.000174802 0.000317657 0.00221063 -0.0715867 0.0330232 -0.0834032)
(-7.99968e-06 -0.000190812 0.000679627 -0.0824479 0.0473125 -0.0955543)
(-0.000562354 -0.00159871 0.00321922 -0.0707865 0.0310201 -0.0826686)
(-0.000996593 -0.000800438 -0.00222067 -0.0679565 0.0279905 -0.0822819)
(5.37106e-05 -8.28482e-05 -0.00348717 -0.0541426 0.063482 -0.179803)
(0.000583529 3.83181e-05 -0.0029058 -0.0686694 0.0265779 -0.0903184)
(0.00111278 -3.38509e-05 5.75436e-05 -0.0778798 0.0344331 -0.0948729)
(-0.000402156 0.000325042 0.00463449 -0.0699382 0.0267661 -0.0898105)
(-0.00153321 -0.000532772 -0.00196432 -0.0669334 0.0259209 -0.0826452)
(0.00117015 -0.000453096 -0.00462041 -0.052354 0.0606402 -0.1876)
(0.000896241 0.000346511 0.00448874 -0.0524114 0.0606987 -0.187575)
(-0.00120252 -0.00223227 0.00109693 -0.0664114 0.0251212 -0.0826589)
(0.000199285 -0.00050618 -0.00216692 -0.0525359 0.0505224 -0.177767)
(0.00021814 0.00279258 0.000811465 -0.0530372 0.0614021 -0.179936)
(0.000204161 0.000435733 -0.00194536 -0.0686451 0.0265589 -0.0902787)
(0.00104642 0.000288642 0.00302867 -0.0783189 0.0357747 -0.0946557)
(-0.000365202 0.000452101 0.00525326 -0.0700221 0.0306093 -0.0827595)
(-0.000918801 -0.000122586 0.000723048 -0.0688987 0.0289314 -0.0821726)
(-0.000690277 -0.00014997 -0.000405714 -0.0689907 0.0288797 -0.0822619)
(-0.000796348 -0.000491163 -0.00336905 -0.0685877 0.0274254 -0.0824393)
(0.000490209 -0.0020911 -0.00486883 -0.0673114 0.0233426 -0.0898691)
(0.00137697 0.00163417 -0.000884514 -0.0667465 0.0149929 -0.0889004)
(-0.00157497 0.00197437 0.00340385 -0.0811796 0.0447467 -0.0955753)
(-0.0153474 -0.00117028 -0.00091293 -0.0706877 0.0320519 -0.0812394)
(-0.0910148 -8.3023e-05 -0.00486657 -0.0708321 0.0375729 -0.0704127)
(-0.10078 0.00172067 0.00127949 -0.0349967 0.0146928 -0.0624856)
(-0.01373 0.00158449 0.00737757 -0.0319057 0.035791 -0.185318)
(-0.00224271 0.00142732 0.00246622 -0.043547 0.0202825 -0.0892448)
(-0.000643335 0.00232705 -0.00359035 -0.0464239 0.021458 -0.0892736)
(0.000848095 0.000513659 -0.000188763 -0.0495874 0.038102 -0.0982672)
(0.00014029 -0.00103763 0.00174993 -0.0462559 0.0251072 -0.0899247)
(5.78879e-05 -0.000248674 0.000624898 -0.0545658 0.0333997 -0.0923662)
(-0.000436951 -0.00106915 0.00213835 -0.0456096 0.0230669 -0.0893406)
(-0.000980818 0.000417357 -0.00193699 -0.0432491 0.021003 -0.0892722)
(-0.000336758 -0.00131602 -0.00350383 -0.0403574 0.023344 -0.0947088)
(0.000635206 -0.000499214 -0.00349606 -0.0443136 0.0162915 -0.0925158)
(0.00153628 -0.000139194 -9.0498e-07 -0.0408498 0.0512601 -0.195393)
(-0.000238559 -0.000329172 0.00486994 -0.0457436 0.015729 -0.0918887)
(-0.00159959 0.000805136 -0.00149805 -0.0423947 0.0193419 -0.0895348)
(0.000931264 -0.000413262 -0.00417801 -0.0392022 0.0180863 -0.097961)
(0.000578322 0.000374601 0.00401265 -0.0392315 0.0181419 -0.0978881)
(-0.00100005 -0.000160626 -0.000567737 -0.0417066 0.018917 -0.0898055)
(0.000531374 0.000658105 -0.00187132 -0.0314443 0.0392483 -0.196245)
(-0.000144893 -0.000509854 0.00207057 -0.0393129 0.0218147 -0.0950429)
(0.000170595 -0.000103331 -0.00238895 -0.0442788 0.0162996 -0.0924246)
(0.00144291 0.00153788 0.00305675 -0.0411186 0.0524692 -0.19521)
(-0.0004276 -0.000237413 0.0054871 -0.0443298 0.0231675 -0.0896103)
(-0.00107534 -0.000181964 0.000716138 -0.0439699 0.0215235 -0.089042)
(-0.000775693 -0.000204263 -0.00045005 -0.0439432 0.0214568 -0.0891434)
(-0.00109802 -0.00176495 -0.00351086 -0.0437987 0.0201033 -0.0892026)
(0.000714441 -0.00228632 -0.00629034 -0.0433453 0.0132159 -0.0922284)
(0.00197154 0.00240445 0.000132019 -0.0341457 0.0338424 -0.194491)
(-0.00176236 0.00205587 0.00482878 -0.0533427 0.0311508 -0.0924874)
(-0.0159367 -0.0010749 -0.000921754 -0.0470003 0.0222631 -0.0865765)
(-0.0980802 -0.00112862 -0.0038771 -0.0459777 0.0272323 -0.0663344)
(-0.103791 0.00169616 0.00149319 -0.0219491 0.0100061 -0.0650548)
(-0.014467 0.00121432 0.00138068 -0.0169451 0.01204 -0.0949038)
(-0.00223937 0.000227756 0.00228635 -0.0279419 0.0133375 -0.0926554)
(-0.000547443 0.000992692 -0.00240297 -0.0319129 0.0128542 -0.0921047)
(0.000624032 0.00067152 8.89832e-05 -0.0427313 0.0217976 -0.0919874)
(7.29847e-05 -0.000447029 0.00119998 -0.0302496 0.0168409 -0.0927098)
(8.02054e-05 -0.000242596 0.000507685 -0.0379002 0.0182587 -0.0915055)
(-0.000400625 -0.000318757 0.00158902 -0.0297557 0.0151404 -0.0924533)
(-0.00112525 -0.000314585 -0.00171268 -0.0277014 0.0142908 -0.0926315)
(-0.000244607 -0.000430304 -0.00443548 -0.0360112 0.0141518 -0.0924669)
(0.000812415 0.000856542 -0.00294994 -0.0194157 0.0282057 -0.199562)
(0.00127567 -0.000266828 -0.000112645 -0.0227349 0.019386 -0.0981023)
(-0.00015662 -0.00079601 0.00396361 -0.0212748 0.0268089 -0.198848)
(-0.00158668 0.000227183 -0.00103409 -0.0267739 0.0131779 -0.0929379)
(0.00100965 -0.00028043 -0.00465774 -0.0251302 0.0287347 -0.199665)
(0.000907682 0.000279138 0.00449881 -0.0251342 0.028775 -0.199644)
(-0.00111537 -0.000504989 0.000179992 -0.0262472 0.0130405 -0.0931805)
(0.000107259 -0.0002198 -0.00159392 -0.0290537 0.00998514 -0.0968372)
(-2.78461e-05 0.000542869 0.000968746 -0.0352054 0.0131361 -0.0928199)
(0.000616819 0.00120418 -0.00167569 -0.0193719 0.0282276 -0.199528)
(0.00115293 0.00067727 0.00409131 -0.0229644 0.0204234 -0.0979151)
(-0.000656312 -0.000776415 0.00459029 -0.0281163 0.0160355 -0.0927937)
(-0.000945091 -0.000230671 0.000622304 -0.0282851 0.0144773 -0.0924767)
(-0.000993904 -0.00022053 -0.000544372 -0.0280963 0.0144487 -0.0925085)
(-0.00121684 -0.000844979 -0.00465373 -0.0281968 0.0131679 -0.0925392)
(0.00120466 -0.000441102 -0.00708324 -0.0187378 0.0256801 -0.199645)
(0.00221271 0.000822804 0.00166008 -0.00909049 0.0268297 -0.204913)
(-0.00211296 -8.02812e-05 0.00555508 -0.0367388 0.0165781 -0.0916296)
(-0.0165829 -0.000955981 -0.00106589 -0.0325619 0.012343 -0.0888427)
(-0.102464 -0.00147446 -0.00354951 -0.0311494 0.0150418 -0.0644374)
(-0.105707 0.00201386 0.00128428 -0.0141461 0.00656408 -0.0659674)
(-0.0148225 0.000848942 0.00863882 -0.00615855 0.0215289 -0.196609)
(-0.0023269 -0.00126634 0.00244 -0.0185254 0.00815019 -0.0941903)
(-0.00052514 -0.000332184 -0.00210737 -0.0237876 0.00528974 -0.0930404)
(0.000582488 0.000967483 0.000486068 -0.0197785 0.00744282 -0.0945058)
(-2.12094e-05 -1.5112e-07 0.000994159 -0.0196438 0.0105108 -0.0940562)
(0.000111216 -0.000242196 0.000387231 -0.0289185 0.00670031 -0.0918362)
(-0.000443576 0.00059794 0.00160595 -0.0198356 0.00905039 -0.0938652)
(-0.00102958 -0.00106353 -0.00193897 -0.0175524 0.00937388 -0.0942319)
(-0.000137556 0.000324557 -0.0039241 -0.0152323 0.00404955 -0.095516)
(0.000667878 0.0024678 -0.00272242 -0.0224411 0.0114074 -0.0956537)
(0.0012438 -0.000485528 -0.000300268 -0.0098342 0.0269093 -0.20319)
(-0.000119624 -0.00144033 0.00391319 -0.0256515 0.00882186 -0.0947586)
(-0.00150971 -0.000195084 -0.000908186 -0.0170741 0.00868332 -0.0943583)
(0.000918948 -0.00022379 -0.00415018 -0.0158855 0.00838498 -0.097672)
(0.000521473 0.000273397 0.0039931 -0.0158863 0.00842076 -0.0975774)
(-0.0010959 -0.000886797 -0.00126257 -0.0162489 0.00887563 -0.0946999)
(0.000734823 -0.00117757 -0.00184533 -0.00884156 0.0137997 -0.203838)
(0.000114525 0.00156856 0.00247411 -0.0143942 0.00346469 -0.0958893)
(0.000198828 0.00275499 -0.00128978 -0.0224065 0.0114475 -0.0955496)
(0.00108589 -6.63903e-05 0.00369827 -0.00980824 0.0278716 -0.203085)
(-0.00058992 -0.00152867 0.00450836 -0.0179676 0.0109173 -0.0943236)
(-0.000971004 -0.000272751 0.000501234 -0.018551 0.00920938 -0.0939851)
(-0.000897655 -0.000243667 -0.000647683 -0.0181024 0.00932825 -0.0941043)
(-0.00115018 -6.60466e-05 -0.00433931 -0.0188862 0.00786845 -0.0939392)
(0.00101749 0.00147368 -0.00682831 -0.0228542 0.00914258 -0.0956628)
(0.00205221 -0.000764023 0.00120478 -0.0102601 0.0261358 -0.205382)
(-0.00212349 -0.0024417 0.005063 -0.0281954 0.00547606 -0.0919121)
(-0.0171016 -0.000840427 -0.00136791 -0.024471 0.00362245 -0.08972)
(-0.105025 -0.00175926 -0.00387514 -0.0229922 0.00594978 -0.0638749)
(-0.107291 0.00278647 0.00220443 -0.00992792 0.00401294 -0.0659743)
(-0.0158438 0.000573019 0.00184126 -0.00904993 0.0153146 -0.094436)
(-0.00252686 -0.00317308 0.000701739 -0.0132355 0.00419687 -0.0945849)
(-8.11307e-05 0.000846877 -0.00263133 -0.0205036 -0.0017644 -0.0929868)
(0.000700187 0.00155239 0.0011143 3.2686e-05 0.0148289 -0.20481)
(-0.000160993 -0.00225951 0.00106366 -0.0125882 0.00632525 -0.0949164)
(0.000205544 -0.000322543 0.000255383 -0.0259193 -0.00328964 -0.0916438)
(-0.000563863 0.00183412 0.00218482 -0.0136515 0.00456852 -0.0945594)
(-0.00118799 0.000525458 -0.00267614 -0.0110316 0.00625703 -0.0950495)
(0.000454959 -0.00140438 -0.00408329 0.00321192 0.0136415 -0.20563)
(0.000652335 0.00202478 -0.000431082 -0.0176448 -0.000360568 -0.0946742)
(0.0004999 -0.000898988 -0.000634273 -0.0112022 0.0180916 -0.0972983)
(-9.27904e-05 -0.00234381 0.00240056 -0.023098 -0.00508542 -0.0932607)
(-0.00134705 0.00209705 -0.0010777 -0.0105452 0.00564575 -0.0951855)
(0.00109923 -7.88978e-05 -0.00475137 0.00337227 0.0121349 -0.20673)
(0.000775239 0.000233035 0.00465115 0.00336296 0.0121701 -0.206647)
(-0.00140836 0.000929425 -0.000752469 -0.00991906 0.00640297 -0.0953806)
(0.000593014 0.000151307 -0.00270725 -0.00300771 0.0166315 -0.206073)
(0.000755801 -0.00212359 0.00246682 0.0039504 0.0135445 -0.205972)
(0.000293451 0.00224907 0.00113123 -0.0176253 -0.000304263 -0.0945882)
(0.000302082 0.00161494 0.00400057 -0.0112537 0.0191526 -0.0971991)
(-0.000692606 -0.00259189 0.00291506 -0.0118108 0.00746318 -0.0949941)
(-0.000687005 -0.000300108 0.000343497 -0.0126654 0.00538848 -0.0947491)
(-0.000955192 -0.000315074 -0.000787555 -0.011769 0.00582961 -0.094887)
(-0.000878297 -0.00185252 -0.00471314 -0.0133135 0.00372039 -0.0946051)
(0.00106655 0.00128468 -0.00550409 -0.0191532 -0.00317581 -0.0944551)
(0.00144854 -0.000104088 0.00102745 -0.0132267 0.0112875 -0.098104)
(-0.00223338 -0.00285453 0.00317583 -0.0255831 -0.00441791 -0.0916456)
(-0.017574 -0.000664888 -0.00182014 -0.0203702 -0.00486739 -0.0903507)
(-0.106814 -0.00243051 -0.00507195 -0.0195416 -0.0011461 -0.062623)
(-0.108425 0.00238687 0.00338293 -0.00804843 0.00179324 -0.0654182)
(-0.0168033 0.000355278 0.00195815 -0.013567 0.00894359 -0.0915456)
(-0.00233794 -0.00350679 -0.00105668 -0.0104655 0.000637 -0.0947584)
(0.000434826 0.0023507 -0.00132292 -0.00857841 -0.00961137 -0.0957948)
(-3.43052e-05 0.00257022 0.00208979 -0.00514199 0.0126748 -0.0974263)
(-0.000393611 -0.00518829 -0.00131395 -0.00799455 0.00364867 -0.0954466)
(0.000930444 -0.000471398 5.0291e-05 -0.0152686 -0.0141564 -0.094314)
(-0.000274009 0.00354471 0.00351958 -0.00976609 0.00115442 -0.0950748)
(-0.00167894 0.00228436 -0.00142665 -0.00723733 0.00427002 -0.0953431)
(0.000161132 -0.000986811 -0.00526391 -0.00265574 0.0129842 -0.0981058)
(0.000770187 -0.000401075 -0.00053671 0.00861819 0.00342038 -0.207954)
(0.000370417 -0.00157329 -0.00124526 -0.014101 0.0114036 -0.0947155)
(0.000481066 -0.0013301 0.00144814 0.000346533 -0.0047685 -0.205823)
(-0.00105722 0.00507187 0.00123578 -0.00616081 0.00408507 -0.0958111)
(0.000545424 0.00255646 -0.00416512 0.0100949 0.0214331 -0.209134)
(0.000723503 -0.00238855 0.00417288 0.0100724 0.021461 -0.20917)
(-0.0011136 -0.00216299 -0.000383515 -0.00639811 0.00493794 -0.095759)
(0.000122309 0.00160177 -0.00173727 -0.0104586 0.00655457 -0.0969901)
(0.000534211 -0.00132901 0.000399157 -0.00213882 0.0131741 -0.098366)
(0.000948562 -0.000258979 0.00112053 0.00862293 0.00348358 -0.207995)
(0.000117864 0.00110419 0.00526109 -0.0147368 0.0123136 -0.0944643)
(-0.000972137 -0.00182009 0.00177308 -0.007999 0.00497054 -0.0953307)
(-0.000514594 -0.000281027 0.00018645 -0.00940787 0.00240041 -0.0951006)
(-0.00121018 -0.000384943 -0.000974024 -0.00768921 0.00346805 -0.0953146)
(-0.000832659 -0.00155058 -0.00615454 -0.0102627 0.000391383 -0.0948733)
(0.00137637 0.0015026 -0.0053856 0.00633227 -0.000350915 -0.207642)
(0.00124635 -0.00201899 0.00100292 -0.00560251 0.0127951 -0.204872)
(-0.00241921 -0.00384816 0.00198786 -0.0149356 -0.015281 -0.0943211)
(-0.018607 -0.000286332 -0.00242475 -0.00637908 -0.0138847 -0.0958247)
(-0.1101 -0.00323265 -0.00815485 -0.0111268 -0.00795577 -0.0615986)
(-0.109498 0.00243901 0.00482101 -0.00738099 -0.000482013 -0.0641624)
(-0.0178866 0.000225934 0.00215704 -0.00822327 0.00413065 -0.0926505)
(-0.00220676 -0.00215432 -0.00311616 -0.00927696 -0.00279627 -0.0946931)
(0.00114769 0.00191705 -0.000139379 0.0148202 -0.00411913 -0.209594)
(-0.00080326 0.00167433 0.00374242 -0.0116468 0.00735642 -0.0945074)
(-0.000768594 -0.00428225 -0.0042901 -0.00478876 0.00202159 -0.0958551)
(0.00195126 -0.000682535 -0.000231631 0.00540544 -0.0125808 -0.207512)
(-1.33358e-05 0.00343509 0.00587027 -0.00771133 -0.00156704 -0.0953623)
(-0.00209394 0.00194003 -0.000326276 -0.0049459 0.00278925 -0.0954964)
(-8.1076e-05 0.00177303 -0.00510014 -0.00987343 0.00878612 -0.0950766)
(0.000535294 -0.000261939 -0.000722712 0.0114682 0.0144347 -0.209366)
(0.000312922 -0.00255297 -0.00227021 -0.00821204 0.0074126 -0.0955268)
(0.00123599 -0.000759076 0.000930569 0.0121819 0.00126449 -0.210009)
(-0.000569459 0.00403681 0.00415269 -0.00394423 0.0032747 -0.0961416)
(-0.000392293 0.00316737 -0.00212759 -0.00727333 0.0199266 -0.0967056)
(-0.000168629 -0.00306765 0.00220683 -0.00731936 0.019936 -0.0967437)
(-0.000611269 -0.00317602 -0.00289888 -0.0046486 0.00379304 -0.0959915)
(0.000760098 0.00100488 -0.00107901 0.00541339 0.00621703 -0.207749)
(0.000385067 0.00170159 0.0010268 -0.00929478 0.00922715 -0.0953778)
(0.000780056 -0.000265181 0.000982054 0.0114503 0.0144938 -0.209414)
(-1.14437e-05 -0.00171052 0.00514209 -0.00926465 0.00782098 -0.0951624)
(-0.000969536 -0.00152593 0.000925468 -0.00538743 0.00318433 -0.0956416)
(-0.000399407 -0.000243696 4.55631e-05 -0.00819167 -0.000355295 -0.0951356)
(-0.00120994 -0.000490211 -0.00118905 -0.00491457 0.00189079 -0.0956769)
(-0.000501067 0.000954481 -0.00632745 -0.0096496 -0.00288868 -0.0946814)
(0.000982083 0.00222513 -0.00388587 0.00766821 0.00924087 -0.208635)
(0.000399415 -0.00436258 -0.00104267 -0.0118893 0.00883174 -0.0957415)
(-0.00212903 -0.00302092 -0.00195377 0.00555032 -0.0136215 -0.20714)
(-0.0195323 -0.000102834 -0.0103552 0.00746745 -0.00726289 -0.207098)
(-0.093687 -0.00368291 -0.055429 0.00369737 -0.00652493 -0.151922)
(-0.112128 0.00237569 0.00727237 0.000818463 -0.00305107 -0.0643227)
(-0.0187394 2.21689e-05 0.00232094 -0.00375088 0.0011642 -0.0949845)
(-0.00209171 0.00112665 -0.00332876 0.00252111 -0.00643583 -0.0980461)
(0.00121225 0.00188497 0.000812302 0.016108 0.00969023 -0.210533)
(-0.00127026 -0.00135057 0.00384561 -0.00862638 0.00337798 -0.0948645)
(-0.00086457 -0.00177852 -0.00583158 -0.00264993 0.00125116 -0.096171)
(0.00247284 -0.00105749 -0.00065873 0.0148744 -0.00447273 -0.210993)
(0.000250106 0.00147531 0.00712126 -0.00745845 -0.00427327 -0.0951901)
(-0.00201069 0.0018525 0.000642505 -0.00325494 0.00172148 -0.0957383)
(-0.00027847 0.00229647 -0.0034734 -0.00687152 0.00552869 -0.0954375)
(-9.49745e-05 -7.15136e-05 -0.000810561 -0.00903816 0.0136616 -0.0959678)
(0.000270199 -0.00143014 -0.00388126 -0.0052417 0.00510583 -0.0959174)
(0.00179845 -0.000475252 0.000617478 0.0138757 0.0079164 -0.210865)
(-0.000271828 0.00118008 0.00549871 -0.00307188 0.00256194 -0.0962516)
(-0.000874623 0.00188169 -0.000841383 -0.0133786 0.0126906 -0.0939362)
(-0.000544586 -0.00186491 0.000956131 -0.01344 0.0126691 -0.0939955)
(-0.000299699 0.000385205 -0.00364936 -0.00414869 0.0026706 -0.0960131)
(0.00109754 0.00067488 -0.000652193 0.00996942 0.0159747 -0.209282)
(0.000281059 -0.000122803 0.00204808 -0.00650789 0.00631532 -0.0957065)
(0.000266177 -0.000255652 0.000845584 -0.00907195 0.0137048 -0.0960385)
(-0.000135149 -0.00226311 0.00353914 -0.00625074 0.00492041 -0.0955383)
(-0.000678872 -0.00160371 0.000135619 -0.00351279 0.0019402 -0.09597)
(-0.000307275 -0.000187878 -7.23795e-05 -0.00845262 -0.00352342 -0.0947974)
(-0.000970938 -0.000677601 -0.00148198 -0.00273771 0.000944519 -0.096071)
(-0.000289504 0.000967275 -0.00522858 0.00168435 -0.00693149 -0.0978345)
(0.00032064 0.00105607 -0.00302492 -0.0148949 0.00595402 -0.0946105)
(0.000215227 -0.00246341 -0.00335927 -0.00858574 -0.00123198 -0.0958869)
(-0.00178978 -3.25003e-05 -0.00231732 0.0145287 -0.00550462 -0.210518)
(-0.020699 -3.41926e-05 -0.00320067 0.00949589 -0.00244792 -0.107024)
(-0.0964268 -0.00193002 -0.0591099 0.0104582 -0.00200559 -0.151674)
(-0.0931285 0.000287152 0.0523733 0.00919428 0.00179719 -0.155824)
(-0.0190563 0.000153412 0.00232435 -0.000983313 0.00217601 -0.0982577)
(-0.00192076 0.00186758 -0.00100135 0.0141196 0.00238128 -0.208565)
(0.000660913 -0.000298431 0.00168315 -0.00520784 0.0116531 -0.0967934)
(-0.00153339 -0.00207559 0.00239091 -0.00823436 -0.000125261 -0.0947052)
(-0.000709771 0.00041623 -0.00619939 -0.00151471 0.000918221 -0.0963789)
(0.00260145 -0.00164453 -0.00133594 0.0147531 0.00304644 -0.211231)
(0.000568465 -0.000188406 0.00744836 0.00376005 -0.007536 -0.098453)
(-0.00192944 0.00205871 0.00163224 -0.0018447 0.00105205 -0.0959764)
(-0.000465483 0.000616069 -0.00271675 -0.00486594 0.00313849 -0.0956831)
(-0.000209784 6.21502e-05 -0.000806985 -0.0186772 0.00437844 -0.0927461)
(0.000231803 0.00202995 -0.00375451 -0.00400294 0.00344136 -0.0960747)
(0.00175755 -0.000323712 0.000420235 0.00544007 0.0158437 -0.208419)
(-9.79967e-05 -0.00141234 0.00544695 -0.00311787 0.00171926 -0.096188)
(-0.00100084 0.00109483 -0.000105664 -0.00869751 0.00765404 -0.094764)
(-0.000467625 -0.00122316 0.000203123 -0.00875061 0.00759946 -0.094876)
(-0.000103552 0.00150423 -0.00257722 -0.00470097 0.00109778 -0.0958123)
(0.000658219 0.000534106 -0.000350606 -0.0092424 0.0152601 -0.095849)
(0.000199367 -0.00210681 0.000908295 -0.00517496 0.00395183 -0.0957961)
(0.000352244 -0.00021616 0.00070802 -0.0187133 0.00440184 -0.0928666)
(-0.000281464 -0.000598737 0.00279497 -0.00450197 0.00279067 -0.095783)
(-0.000554708 -0.00196518 -0.000764036 -0.00200106 0.0011653 -0.096242)
(-0.000214185 -8.88272e-05 -0.000154235 0.00275703 -0.00736436 -0.0979938)
(-0.000979205 0.00153762 -0.00187441 -0.00106042 0.000690531 -0.0963845)
(-0.000154114 -0.00147577 -0.00534509 0.0138996 0.00150938 -0.208933)
(0.000300735 0.000171423 -0.00271762 -0.0144424 -0.00674255 -0.0943523)
(0.000191312 0.00149015 -0.00374868 0.00531267 0.0024788 -0.207213)
(-0.00175665 0.000506177 -0.00216559 0.0132684 0.00178817 -0.210586)
(-0.0209001 0.000194427 -0.0108135 0.0109735 0.00554582 -0.210503)
(-0.0965533 -7.23088e-05 -0.0596124 0.0100981 0.00229378 -0.151448)
(-0.112496 -0.00170677 0.00744511 0.00214965 0.00521096 -0.0645219)
(-0.0185058 0.000232742 0.00242412 -0.000751684 0.00374966 -0.0956041)
(-0.00218866 0.000348231 -0.0014475 0.0030135 0.00913474 -0.0981802)
(0.000425628 -0.00256916 0.000375072 -0.0152403 0.0039937 -0.093573)
(-0.00112656 -0.000610852 0.00170121 -0.00947915 -0.0042413 -0.0943144)
(-0.000778333 0.0028179 -0.00541018 -0.00108539 0.000734645 -0.0963987)
(0.00235166 -2.25476e-06 -0.0023507 0.00477861 0.0110185 -0.208249)
(0.000990674 -0.00184284 0.00694069 0.015121 0.00132451 -0.209571)
(-0.00184967 0.000127919 0.00277814 -0.000907342 0.000850463 -0.0961747)
(-0.000677628 -0.00106974 -0.00280756 -0.00335977 0.00141534 -0.0958866)
(0.000187932 0.000100202 -0.000749312 -0.0189723 -0.00469401 -0.0925789)
(0.000192891 0.00339245 -0.00180091 -0.00334146 0.00193577 -0.0961211)
(0.00110974 -0.000297444 0.000271958 -0.0143213 0.0129692 -0.0945548)
(1.19174e-05 -0.00164595 0.00407253 -0.00392629 0.000351411 -0.0959483)
(-0.000836581 0.000755642 0.000334614 -0.00556151 0.0044616 -0.0953837)
(-0.000462658 -0.00106625 -0.000354485 -0.00556998 0.00438473 -0.0954637)
(5.16666e-05 0.000285844 -0.0021195 -0.00585269 -0.00119495 -0.0955179)
(0.000375347 0.000580492 -8.12241e-05 -0.0177056 0.00589849 -0.0929722)
(0.00013117 -0.00201653 -0.00012011 -0.00412035 0.00187588 -0.0959313)
(0.000567845 -0.00012239 0.000614692 -0.0190041 -0.00469017 -0.0926544)
(-0.000485111 0.00107864 0.00289198 -0.00314637 0.00122297 -0.0959714)
(-0.00057701 -0.000151177 -0.00189692 -0.0010012 0.000900385 -0.0964326)
(0.000393324 3.61219e-07 -0.000173003 0.0145403 0.00102105 -0.209249)
(-0.00124846 0.0015509 8.31976e-05 -0.000417632 0.000896106 -0.0964136)
(-0.000562681 -0.00170745 -0.00671794 0.0037115 0.00836435 -0.0983082)
(0.000914871 -0.000662079 -0.00285904 0.00820162 -0.00722113 -0.20875)
(0.000282354 0.00304657 -0.00184992 -0.00541588 0.00494282 -0.0964907)
(-0.00204277 0.00101376 -0.00169287 0.00106495 0.00858584 -0.206812)
(-0.0206689 0.000373363 -0.00287441 0.00034433 0.0121338 -0.102743)
(-0.0946949 0.00114038 -0.058331 0.00283713 0.00669133 -0.15105)
(-0.110402 -0.0014598 0.0052168 -0.00455712 0.00315906 -0.0642361)
(-0.0179175 -5.04884e-05 0.00230099 -0.00145328 0.0026357 -0.0938281)
(-0.00240946 -0.000989702 -0.00172411 -0.00698581 0.00533342 -0.0949301)
(0.000464681 -0.00278529 -0.000978631 -0.0149944 -0.00343035 -0.093517)
(-0.000456954 0.000755624 0.00173936 0.000881053 -0.00922638 -0.0975402)
(-0.000588005 0.00326703 -0.00327899 -0.000758355 0.000472782 -0.09646)
(0.00166921 0.00159677 -0.00135488 -0.004391 0.00777765 -0.0975773)
(0.00059437 -0.00132475 0.00554647 0.00353013 0.00865449 -0.0984316)
(-0.00177477 -0.001637 0.00178036 -0.00074379 0.000783762 -0.0961759)
(-0.00047093 -0.00299679 -0.00382553 -0.00193354 0.000275107 -0.0962127)
(0.000682668 6.54869e-05 -0.000702624 -0.0100303 -0.0147245 -0.0952732)
(0.000152239 0.00295965 -0.000223261 -0.00220023 0.000619655 -0.0963223)
(0.000749854 -0.000440334 0.000102764 -0.0107534 0.000844403 -0.0952124)
(0.000112637 0.000340415 0.003747 -0.00503307 -0.00171131 -0.0956785)
(-0.00088487 0.000766271 0.000701162 -0.00366137 0.00240469 -0.0957415)
(-0.000561585 -0.00128162 -0.000927914 -0.00354302 0.00234206 -0.0958369)
(0.000225765 -0.000922999 -0.00227396 -0.00724272 -0.00432223 -0.0950703)
(0.000197756 0.000880711 0.000263369 -0.0164825 -0.00245697 -0.0930753)
(5.88471e-05 -0.00236667 -0.00120983 -0.00265136 0.000291584 -0.0961947)
(0.000971301 -2.19702e-05 0.000577836 -0.010046 -0.0147359 -0.0953322)
(-0.000287217 0.00300147 0.00391333 -0.0018061 0.000170752 -0.0962794)
(-0.000770423 0.00157229 -0.000934381 -0.000793814 0.000796948 -0.0963787)
(0.000126082 2.79729e-05 -0.000155459 0.00344445 0.00821375 -0.0982742)
(-0.00132075 -0.000628348 -0.000278736 -0.000668541 0.000942597 -0.0962851)
(-0.000596644 0.000249057 -0.00708854 -0.00614209 0.00512302 -0.0952168)
(0.00124955 -0.00165502 -0.00343272 0.00655425 0.00245159 -0.20845)
(0.000519062 4.2945e-05 -0.000470614 -0.00493725 -0.00337503 -0.0965246)
(-0.00219 0.00160507 1.48622e-05 -0.0101758 0.0027208 -0.0960188)
(-0.0199355 0.00107862 -0.00227215 -0.0108359 0.00612438 -0.096086)
(-0.113725 0.0018574 -0.012309 -0.00345343 0.0044844 -0.0607274)
(-0.110071 -0.000805628 0.00415487 -0.00331775 0.00163463 -0.0653357)
(-0.0176706 -0.000130143 0.00210629 -0.00172605 0.00142958 -0.0932122)
(-0.00266452 -0.0023594 -0.00260082 -0.00473263 0.0024307 -0.0953927)
(0.000768659 -0.000994102 -0.00251713 -0.00434832 -0.0111082 -0.096618)
(8.21867e-05 0.00223646 0.00251212 0.0117479 -0.00269636 -0.208671)
(-0.000610121 0.00176315 -0.00201065 -0.000508736 0.000398285 -0.0965444)
(0.00143336 0.000855167 -0.000715542 -0.00179877 0.00658823 -0.205943)
(0.000343924 -0.00111312 0.00553868 -0.00724506 0.0048776 -0.0951465)
(-0.0021841 -0.000964373 0.00110378 -0.000876573 0.00052752 -0.0960263)
(-0.000337129 -0.0029269 -0.00590945 -0.000593133 -0.000164405 -0.0965431)
(0.00137922 4.67829e-05 -0.00067872 0.0097911 -0.0144339 -0.209105)
(9.17247e-05 0.00324782 0.00131328 -0.000794918 8.1637e-05 -0.0966479)
(0.000585901 -0.000863895 -0.00019346 0.00357804 0.00244809 -0.207037)
(0.000253244 -0.00022751 0.00438494 -0.00653352 -0.0044458 -0.095249)
(-0.00116099 0.0010537 0.00114552 -0.0024804 0.00103274 -0.0959103)
(-0.000800523 -0.00178258 -0.0016997 -0.00211106 0.0010781 -0.0960768)
(0.000484119 -0.00230205 -0.00307929 0.00379499 -0.00814134 -0.0983645)
(8.66146e-05 0.00149881 0.000841413 -0.00514213 -0.0107811 -0.0962009)
(-4.93512e-05 -0.000729249 -0.00257635 -0.000796223 -0.000456033 -0.0965813)
(0.00164148 4.64228e-05 0.000589019 0.00979401 -0.0144479 -0.209169)
(-0.000166271 0.00292882 0.00599899 -0.000511841 -0.000216962 -0.0965967)
(-0.00117174 0.000898667 -0.000289635 -0.00089494 0.000524572 -0.0962433)
(-4.68288e-05 2.54788e-05 -0.000139062 -0.00702252 0.00448094 -0.095049)
(-0.00120419 -0.000365987 -0.000533907 -0.000985657 0.000659421 -0.0962279)
(-0.000768108 -0.000262805 -0.00649472 -0.00442075 0.00259006 -0.0956051)