/*--------------------------------*- C++ -*----------------------------------*\
| =========                 |                                                 |
| \\      /  F ield         | OpenFOAM: The Open Source CFD Toolbox           |
|  \\    /   O peration     | Version:  2106                                  |
|   \\  /    A nd           | Website:  www.openfoam.com                      |
|    \\/     M anipulation  |                                                 |
\*---------------------------------------------------------------------------*/
FoamFile
{
    version     2.0;
    format      ascii;
    arch        "LSB;label=32;scalar=64";
    class       volSymmTensorField;
    location    "162";
    object      sigma;
}
// * * * * * * * * * * * * * * * * * * * * * * * * * * * * * * * * * * * * * //

dimensions      [1 -1 -2 0 0 0 0];

internalField   nonuniform List<symmTensor> 
9000
(
(5.64252e+07 1.1478e+06 -1.21837e+06 2.71597e+07 2.14536e+06 7.47225e+07)
(1.09633e+08 541408 1.38551e+06 3.09942e+07 5.07548e+06 9.40807e+07)
(1.17787e+08 301366 793180 3.28764e+07 5.71613e+06 9.66237e+07)
(1.2017e+08 305839 317771 3.293e+07 6.01719e+06 9.991e+07)
(1.10742e+08 64797.7 190151 2.08581e+07 4.35721e+07 8.01405e+07)
(1.21798e+08 243624 783475 3.29812e+07 6.90189e+06 1.04073e+08)
(1.11355e+08 -33558.2 39905.6 2.23124e+07 4.52232e+07 8.22285e+07)
(1.20398e+08 -537074 -1.11887e+06 3.29437e+07 6.38369e+06 1.00727e+08)
(1.18718e+08 -334940 -1.24013e+06 3.31809e+07 5.36545e+06 9.60556e+07)
(1.18075e+08 -401134 -1.23498e+06 3.17171e+07 3.42311e+06 9.36924e+07)
(1.2478e+08 585200 870426 4.01886e+07 984032 1.05031e+08)
(1.1022e+08 10056.1 93783.7 2.13358e+07 4.30541e+07 7.80257e+07)
(1.24084e+08 -365091 -507078 3.98785e+07 1.18502e+06 1.05178e+08)
(1.18229e+08 -308254 -1.11737e+06 3.35578e+07 4.54208e+06 9.47832e+07)
(1.22777e+08 -652489 -1.68118e+06 3.89817e+07 -1.59494e+06 9.91524e+07)
(1.22814e+08 640217 1.60854e+06 3.89746e+07 -1.57797e+06 9.92727e+07)
(1.18173e+08 225666 557955 3.33877e+07 4.40082e+06 9.42768e+07)
(1.15812e+08 -252972 -677647 2.96608e+07 1.87371e+06 8.94658e+07)
(1.17678e+08 70445.5 456398 3.17602e+07 2.81464e+06 9.2231e+07)
(1.2478e+08 660398 1.55766e+06 4.01955e+07 966880 1.05042e+08)
(1.10353e+08 459623 1.41155e+06 2.1132e+07 4.35253e+07 7.87722e+07)
(1.20193e+08 -325158 -12447.2 3.29559e+07 6.23066e+06 1.00253e+08)
(1.19065e+08 -30554.1 49834.9 3.30974e+07 5.72101e+06 9.70075e+07)
(1.19092e+08 -24862.5 -305424 3.30552e+07 5.71886e+06 9.71274e+07)
(1.18957e+08 -493221 -1.65145e+06 3.32526e+07 5.22356e+06 9.6338e+07)
(1.23738e+08 -583043 -1.79077e+06 4.04874e+07 23520.8 1.01096e+08)
(1.23762e+08 932799 1.97277e+06 3.87846e+07 -459708 1.02004e+08)
(1.09191e+08 552287 1.15172e+06 2.23082e+07 4.41699e+07 7.97545e+07)
(1.07132e+08 -395738 -1.33792e+06 3.09319e+07 8.06697e+06 9.58026e+07)
(5.29943e+07 824086 -2.21194e+07 1.8767e+07 3.77418e+07 7.99282e+07)
(6.49662e+07 1.28408e+06 -348002 6.55252e+07 9.84691e+06 8.47369e+07)
(1.23048e+08 805296 385601 7.25741e+07 1.14671e+07 9.5595e+07)
(1.32411e+08 779095 423821 7.75249e+07 1.48607e+07 9.7519e+07)
(1.33399e+08 204996 -2.47453e+06 7.64162e+07 1.55037e+07 9.76683e+07)
(1.23134e+08 127011 -124501 6.1505e+07 1.11172e+07 7.7792e+07)
(1.33218e+08 745620 597940 7.4978e+07 1.69246e+07 9.75386e+07)
(1.18632e+08 -51398.2 276229 5.41748e+07 1.60167e+07 7.27157e+07)
(1.33194e+08 -902652 1.93348e+06 7.60454e+07 1.61977e+07 9.75631e+07)
(1.33731e+08 -914259 -670497 7.86389e+07 1.4702e+07 9.81114e+07)
(1.38166e+08 -324714 -1.71741e+06 8.56637e+07 9.30767e+06 1.03e+08)
(1.00922e+08 1.08724e+06 -2.11134e+06 5.01161e+07 4.99064e+07 2.03806e+07)
(1.1903e+08 13390.9 45292.3 5.29485e+07 1.16013e+07 7.32168e+07)
(9.97678e+07 -361359 2.41178e+06 4.9023e+07 5.02164e+07 1.98731e+07)
(1.33959e+08 -842270 -574711 7.98164e+07 1.35039e+07 9.82262e+07)
(1.05797e+08 -1.07509e+06 -1.81739e+06 5.93476e+07 4.36958e+07 2.57215e+07)
(1.05848e+08 1.02894e+06 1.76663e+06 5.93073e+07 4.37202e+07 2.57146e+07)
(1.34308e+08 -305218 914462 7.99575e+07 1.3134e+07 9.83222e+07)
(1.3673e+08 -783853 -528085 8.19608e+07 5.49891e+06 1.02781e+08)
(1.38612e+08 1.13096e+06 -386145 8.65508e+07 8.25175e+06 1.03233e+08)
(1.00935e+08 1.24712e+06 -1.62114e+06 5.01266e+07 4.98841e+07 2.03634e+07)
(1.1875e+08 414083 1.56669e+06 5.22892e+07 1.23215e+07 7.31125e+07)
(1.33268e+08 -294525 2.76204e+06 7.63692e+07 1.59534e+07 9.76453e+07)
(1.33639e+08 -39173.5 292439 7.79562e+07 1.52699e+07 9.79753e+07)
(1.33623e+08 -50726.6 -224338 7.78183e+07 1.52417e+07 9.79e+07)
(1.33873e+08 -482460 -1.73424e+06 7.84606e+07 1.44724e+07 9.79879e+07)
(1.01698e+08 -886165 -2.16139e+06 5.21561e+07 4.85177e+07 2.07905e+07)
(1.00449e+08 1.19591e+06 -778758 4.71502e+07 4.65206e+07 2.0494e+07)
(1.17541e+08 837624 1.48117e+06 5.49556e+07 1.4947e+07 7.24733e+07)
(1.19358e+08 -571974 -595430 7.12319e+07 1.76497e+07 9.16074e+07)
(5.5493e+07 846713 -3.51933e+06 4.29645e+07 1.07155e+07 6.55397e+07)
(7.02991e+07 862850 569096 9.12547e+07 1.00792e+07 9.0444e+07)
(1.37642e+08 911040 299936 1.11286e+08 8.27943e+06 1.03893e+08)
(1.44983e+08 1.29753e+06 583953 1.1079e+08 1.42877e+07 1.03851e+08)
(1.45645e+08 751499 -2.70054e+06 1.09382e+08 1.52371e+07 1.03179e+08)
(9.81383e+07 201068 -164122 6.27534e+07 4.34753e+07 -2.18585e+06)
(1.4552e+08 163867 1.14038e+06 1.08501e+08 1.70354e+07 1.02406e+08)
(1.3479e+08 -98432.7 350594 9.22625e+07 2.44068e+07 8.55013e+07)
(1.45506e+08 -824717 1.66068e+06 1.0928e+08 1.60021e+07 1.0315e+08)
(1.46558e+08 -412916 -1.14556e+06 1.12016e+08 1.44393e+07 1.04626e+08)
(1.09198e+08 -42738.3 -1.7989e+06 8.12399e+07 3.2748e+07 1.64164e+07)
(1.44086e+08 19766.9 -1.49899e+06 1.08361e+08 1.37105e+07 9.71926e+07)
(1.38289e+08 -17462.4 29684.6 9.754e+07 1.77628e+07 8.87739e+07)
(1.42776e+08 167677 2.39076e+06 1.06905e+08 1.38076e+07 9.66538e+07)
(1.46337e+08 -274837 -1.01332e+06 1.126e+08 1.33716e+07 1.04495e+08)
(1.07531e+08 -233735 -2.3835e+06 7.99196e+07 3.1282e+07 1.01513e+07)
(1.07249e+08 178752 2.31557e+06 7.97494e+07 3.13122e+07 1.00237e+07)
(1.46893e+08 -1.15154e+06 565865 1.13254e+08 1.29591e+07 1.04873e+08)
(1.1101e+08 -261120 -1.11783e+06 8.38061e+07 2.60626e+07 1.92042e+07)
(1.09804e+08 1.44059e+06 418605 8.23312e+07 3.16751e+07 1.68687e+07)
(1.43745e+08 224778 -1.00354e+06 1.08228e+08 1.37007e+07 9.70684e+07)
(1.38123e+08 148900 1.56238e+06 9.71814e+07 1.84548e+07 8.87539e+07)
(1.46007e+08 233222 2.70996e+06 1.10074e+08 1.57902e+07 1.03503e+08)
(1.46252e+08 -63237.5 372993 1.11183e+08 1.49246e+07 1.04336e+08)
(1.46391e+08 -77363.8 -209293 1.11158e+08 1.4898e+07 1.04311e+08)
(1.46391e+08 -253373 -1.73797e+06 1.1142e+08 1.41477e+07 1.04275e+08)
(1.44823e+08 -1.07872e+06 -2.51165e+06 1.09847e+08 1.20416e+07 9.82103e+07)
(1.46391e+08 843007 -456288 1.11248e+08 7.73427e+06 9.98199e+07)
(1.33835e+08 1.01851e+06 1.75592e+06 9.27702e+07 2.30831e+07 8.5344e+07)
(1.318e+08 -603704 -470946 1.03252e+08 1.65344e+07 9.78087e+07)
(6.29674e+07 -42828.5 -2.51048e+06 7.33789e+07 1.93825e+07 7.35953e+07)
(7.35188e+07 887632 660042 1.07454e+08 7.57948e+06 9.32737e+07)
(1.03434e+08 817379 3.80581e+06 9.40582e+07 1.84632e+07 1.49184e+07)
(1.53344e+08 736303 1.27223e+06 1.32036e+08 1.0463e+07 1.08463e+08)
(1.5357e+08 1.20044e+06 -1.85213e+06 1.29953e+08 1.10694e+07 1.07849e+08)
(1.49448e+08 264978 -97375.6 1.23431e+08 1.96554e+07 9.83185e+07)
(1.54112e+08 -535276 902726 1.30178e+08 1.29519e+07 1.07651e+08)
(1.49101e+08 -128282 322362 1.20923e+08 1.72297e+07 1.01423e+08)
(1.54113e+08 -551535 1.10309e+06 1.30811e+08 1.18993e+07 1.08251e+08)
(1.54697e+08 215299 -999221 1.32893e+08 1.08347e+07 1.09151e+08)
(1.54158e+08 -678884 -1.8075e+06 1.33513e+08 1.20423e+07 1.05475e+08)
(1.54297e+08 -257526 -1.80349e+06 1.31109e+08 8.40418e+06 1.06243e+08)
(1.09589e+08 -71805.1 -466.845 8.77237e+07 2.64432e+07 8.00071e+06)
(1.53077e+08 -169808 2.51222e+06 1.29603e+08 8.11402e+06 1.05798e+08)
(1.54366e+08 415340 -772790 1.33321e+08 9.97779e+06 1.09003e+08)
(1.54432e+08 -213186 -2.15528e+06 1.33729e+08 9.33003e+06 1.03417e+08)
(1.54108e+08 193243 2.06998e+06 1.33572e+08 9.35871e+06 1.03313e+08)
(1.55141e+08 -82861 -292874 1.34142e+08 9.75857e+06 1.0933e+08)
(1.12532e+08 339492 -965345 9.6037e+07 2.02467e+07 1.10226e+07)
(1.54671e+08 -263015 1.06813e+06 1.34465e+08 1.12534e+07 1.05716e+08)
(1.53902e+08 -53304.8 -1.23237e+06 1.30972e+08 8.40834e+06 1.06135e+08)
(1.09459e+08 793336 1.57686e+06 8.75029e+07 2.70669e+07 8.01306e+06)
(1.54586e+08 -122473 2.83059e+06 1.31938e+08 1.19512e+07 1.0858e+08)
(1.5438e+08 -93868.7 369429 1.32253e+08 1.11032e+07 1.09002e+08)
(1.54638e+08 -105372 -232164 1.32369e+08 1.10687e+07 1.09052e+08)
(1.54363e+08 -910469 -1.81112e+06 1.32335e+08 1.03705e+07 1.08913e+08)
(1.54949e+08 -1.17943e+06 -3.24495e+06 1.32221e+08 6.8176e+06 1.07004e+08)
(1.13501e+08 1.24037e+06 68103.5 9.48694e+07 1.7458e+07 1.21534e+07)
(1.47833e+08 1.06055e+06 2.49099e+06 1.21225e+08 1.60696e+07 1.01031e+08)
(1.3964e+08 -554503 -475499 1.23616e+08 1.14847e+07 1.032e+08)
(6.93497e+07 -582214 -2.00005e+06 9.62274e+07 1.40481e+07 8.57262e+07)
(7.53903e+07 874987 770280 1.17609e+08 5.1618e+06 9.53727e+07)
(1.51035e+08 626424 712241 1.49757e+08 6.21101e+06 1.09541e+08)
(1.58939e+08 117491 1.17944e+06 1.4568e+08 6.88032e+06 1.12296e+08)
(1.59019e+08 512093 -1.2396e+06 1.42839e+08 6.63099e+06 1.11788e+08)
(1.55253e+08 346412 45903.1 1.32888e+08 1.12446e+07 1.07479e+08)
(1.60109e+08 -230605 619023 1.44466e+08 8.6876e+06 1.12245e+08)
(1.5716e+08 -125146 261896 1.37567e+08 9.419e+06 1.09914e+08)
(1.59991e+08 -164435 819714 1.44848e+08 7.81036e+06 1.12505e+08)
(1.60145e+08 -162283 -883506 1.46436e+08 7.37208e+06 1.12941e+08)
(1.57269e+08 -221978 -2.2881e+06 1.38818e+08 7.30039e+06 1.09695e+08)
(1.168e+08 441858 -1.52176e+06 1.06365e+08 1.45503e+07 1.34345e+07)
(1.62254e+08 -137646 -58109.2 1.49868e+08 1.00005e+07 1.10988e+08)
(1.15331e+08 -410632 2.04468e+06 1.04437e+08 1.38297e+07 1.28339e+07)
(1.59981e+08 117195 -533447 1.46987e+08 6.79798e+06 1.12856e+08)
(1.14325e+08 -144663 -2.40276e+06 1.00841e+08 1.48232e+07 1.08046e+07)
(1.14233e+08 143997 2.32077e+06 1.00799e+08 1.48439e+07 1.07762e+07)
(1.6057e+08 -260505 92851 1.47606e+08 6.72712e+06 1.13077e+08)
(1.58798e+08 -113387 -822246 1.43755e+08 5.15096e+06 1.08788e+08)
(1.57687e+08 280046 499740 1.39541e+08 6.77644e+06 1.09819e+08)
(1.16646e+08 621190 -864428 1.06334e+08 1.45616e+07 1.33983e+07)
(1.62115e+08 349378 2.11056e+06 1.49673e+08 1.05357e+07 1.11009e+08)
(1.60338e+08 -400523 2.36796e+06 1.46172e+08 8.27211e+06 1.12808e+08)
(1.60124e+08 -118995 321023 1.46021e+08 7.46832e+06 1.12907e+08)
(1.60149e+08 -113763 -280821 1.46168e+08 7.45352e+06 1.1294e+08)
(1.59871e+08 -435893 -2.40069e+06 1.45953e+08 6.79282e+06 1.12762e+08)
(1.17456e+08 -227548 -3.65398e+06 1.07168e+08 1.32474e+07 1.38448e+07)
(1.20446e+08 424454 856371 1.14615e+08 1.38404e+07 1.35973e+07)
(1.55498e+08 -41414.1 2.86566e+06 1.37636e+08 8.55202e+06 1.0932e+08)
(1.44592e+08 -493155 -549852 1.36349e+08 6.3673e+06 1.07316e+08)
(7.27473e+07 -760620 -1.83106e+06 1.09536e+08 7.75949e+06 9.23639e+07)
(7.66828e+07 1.03887e+06 662514 1.23916e+08 3.38616e+06 9.71829e+07)
(1.08999e+08 437938 4.45645e+06 1.13468e+08 1.1106e+07 1.52216e+07)
(1.62467e+08 -653259 1.2587e+06 1.54111e+08 4.20438e+06 1.15079e+08)
(1.62337e+08 -171361 -1.08712e+06 1.50337e+08 2.72878e+06 1.14612e+08)
(1.64583e+08 499088 250745 1.5408e+08 3.83947e+06 1.15531e+08)
(1.64263e+08 -77.957 512850 1.5414e+08 5.42215e+06 1.15754e+08)
(1.61157e+08 -124940 199758 1.46182e+08 3.45644e+06 1.13725e+08)
(1.63851e+08 308455 828451 1.53847e+08 4.66876e+06 1.15658e+08)
(1.64159e+08 -548635 -1.00024e+06 1.55635e+08 4.83563e+06 1.16079e+08)
(1.65503e+08 167427 -2.0243e+06 1.57716e+08 2.08901e+06 1.16301e+08)
(1.62919e+08 1.27304e+06 -1.40439e+06 1.50998e+08 5.88466e+06 1.1323e+08)
(1.19951e+08 -250466 -154897 1.14236e+08 1.38815e+07 1.44915e+07)
(1.6109e+08 -743011 2.01867e+06 1.47919e+08 4.55087e+06 1.12269e+08)
(1.63852e+08 -100636 -468499 1.55823e+08 4.4794e+06 1.15955e+08)
(1.65244e+08 -115445 -2.14092e+06 1.56575e+08 4.3255e+06 1.14385e+08)
(1.649e+08 141035 2.05989e+06 1.56436e+08 4.34396e+06 1.14294e+08)
(1.64477e+08 -457466 -651311 1.5666e+08 4.57861e+06 1.1619e+08)
(1.19613e+08 -607465 -951937 1.14673e+08 7.11875e+06 1.40816e+07)
(1.65962e+08 809162 1.2763e+06 1.58477e+08 1.7873e+06 1.16437e+08)
(1.62526e+08 1.4212e+06 -665347 1.50864e+08 5.90532e+06 1.13132e+08)
(1.19857e+08 -34248.3 1.9078e+06 1.14237e+08 1.43779e+07 1.45326e+07)
(1.64355e+08 -788583 2.3257e+06 1.5539e+08 5.63185e+06 1.16001e+08)
(1.63871e+08 -140702 258568 1.54802e+08 4.75078e+06 1.15888e+08)
(1.64093e+08 -125698 -334115 1.55218e+08 4.8121e+06 1.16012e+08)
(1.63564e+08 -34071 -2.23849e+06 1.54414e+08 4.05904e+06 1.15697e+08)
(1.63066e+08 760216 -3.52247e+06 1.50752e+08 4.71632e+06 1.13192e+08)
(1.19538e+08 -394131 621499 1.13187e+08 1.34825e+07 1.25309e+07)
(1.59276e+08 -1.25958e+06 2.61182e+06 1.45827e+08 2.82489e+06 1.12958e+08)
(1.47394e+08 -433545 -705656 1.43593e+08 1.86869e+06 1.09933e+08)
(7.42504e+07 -907537 -1.99904e+06 1.16568e+08 3.06927e+06 9.54781e+07)
(7.70699e+07 1.43743e+06 1.13718e+06 1.27296e+08 2.07013e+06 9.83838e+07)
(1.53529e+08 295599 949840 1.57033e+08 7.90022e+06 1.12986e+08)
(1.64517e+08 -1.63687e+06 362001 1.58993e+08 2.16501e+06 1.17028e+08)
(1.643e+08 436872 -1.3574e+06 1.53765e+08 -910187 1.16374e+08)
(1.23202e+08 800822 574827 1.22858e+08 7.64965e+06 1.71872e+07)
(1.66967e+08 -1.1656e+06 548703 1.60557e+08 3.26296e+06 1.18087e+08)
(1.62712e+08 -166388 131743 1.49235e+08 -1.697e+06 1.15331e+08)
(1.66251e+08 946154 1.12707e+06 1.595e+08 2.35673e+06 1.17762e+08)
(1.66619e+08 271064 -1.38052e+06 1.61542e+08 3.22777e+06 1.182e+08)
(1.24046e+08 -724468 -2.10642e+06 1.25468e+08 7.03712e+06 1.77344e+07)
(1.65552e+08 1.04451e+06 -222379 1.56113e+08 -186003 1.16377e+08)
(1.67155e+08 -463755 -327198 1.61118e+08 9.33278e+06 1.16704e+08)
(1.62974e+08 -1.20909e+06 1.23836e+06 1.51106e+08 -2.62338e+06 1.14912e+08)
(1.66625e+08 1.08179e+06 -555946 1.6188e+08 2.91243e+06 1.18217e+08)
(1.24242e+08 -40700.4 -2.45105e+06 1.25415e+08 6.25992e+06 1.70307e+07)
(1.2396e+08 120214 2.39935e+06 1.25295e+08 6.27812e+06 1.6959e+07)
(1.66763e+08 479456 -388171 1.62373e+08 3.30306e+06 1.18286e+08)
(1.21125e+08 78053.7 -1.39657e+06 1.19268e+08 8.57958e+06 1.4514e+07)
(1.24521e+08 -1.09548e+06 1.27254e+06 1.26169e+08 6.98711e+06 1.78777e+07)
(1.65251e+08 1.16021e+06 583560 1.56007e+08 -156958 1.16305e+08)
(1.66984e+08 833090 2.06375e+06 1.61023e+08 9.88013e+06 1.16687e+08)
(1.6677e+08 -1.33706e+06 1.50377e+06 1.61035e+08 3.84998e+06 1.18124e+08)
(1.66496e+08 -154815 177198 1.60317e+08 2.77972e+06 1.17973e+08)
(1.66583e+08 -162535 -406271 1.61004e+08 3.00728e+06 1.18127e+08)
(1.66079e+08 -955646 -2.43133e+06 1.59664e+08 1.91921e+06 1.17728e+08)
(1.65365e+08 662719 -2.83936e+06 1.54934e+08 -1.63828e+06 1.16089e+08)
(1.66781e+08 -53695.2 530021 1.59211e+08 5.8228e+06 1.15426e+08)
(1.60489e+08 -1.47255e+06 1.63829e+06 1.48444e+08 -2.27904e+06 1.14365e+08)
(1.48525e+08 -342991 -938943 1.47083e+08 -2.51091e+06 1.10982e+08)
(7.46631e+07 -1.25381e+06 -2.61643e+06 1.19684e+08 -591232 9.74598e+07)
(7.70823e+07 1.2313e+06 1.74513e+06 1.28863e+08 925064 9.92678e+07)
(1.51848e+08 183275 1.01013e+06 1.53517e+08 4.61367e+06 1.13291e+08)
(1.65892e+08 -1.80902e+06 -545104 1.61699e+08 328605 1.18216e+08)
(1.68984e+08 1.21264e+06 -682446 1.64334e+08 -4.95815e+06 1.19343e+08)
(1.69354e+08 1.32588e+06 1.07804e+06 1.66719e+08 6.53844e+06 1.19113e+08)
(1.68604e+08 -2.67645e+06 -677817 1.64683e+08 1.88222e+06 1.1957e+08)
(1.67078e+08 -243177 25943.2 1.58722e+08 -7.30274e+06 1.17945e+08)
(1.68079e+08 1.82858e+06 1.81562e+06 1.63182e+08 595521 1.19175e+08)
(1.67746e+08 1.17842e+06 -735954 1.64879e+08 2.20275e+06 1.19428e+08)
(1.70373e+08 -509059 -2.71545e+06 1.6892e+08 6.69804e+06 1.19681e+08)
(1.25766e+08 -206900 -276869 1.29814e+08 1.76445e+06 1.80925e+07)
(1.66884e+08 -811599 -642384 1.59418e+08 5.88271e+06 1.17832e+08)
(1.22669e+08 -686151 747039 1.22599e+08 -2.45989e+06 1.62439e+07)
(1.68631e+08 2.61639e+06 637494 1.65998e+08 2.10734e+06 1.19751e+08)
(1.25683e+08 1.31878e+06 -2.14863e+06 1.30609e+08 1.10565e+07 1.75174e+07)
(1.2583e+08 -1.23216e+06 2.15263e+06 1.30653e+08 1.10709e+07 1.75537e+07)
(1.68491e+08 -1.11581e+06 -197841 1.65765e+08 2.5473e+06 1.19667e+08)
(1.67269e+08 826292 -896194 1.61811e+08 3.38126e+06 1.17172e+08)
(1.70855e+08 -685585 205910 1.69476e+08 6.79601e+06 1.19836e+08)
(1.25923e+08 -133598 578040 1.29882e+08 1.79705e+06 1.81367e+07)
(1.66461e+08 569613 2.714e+06 1.58798e+08 6.35215e+06 1.1767e+08)
(1.68091e+08 -938914 914666 1.64467e+08 2.56412e+06 1.19415e+08)
(1.67997e+08 -144971 96182.5 1.63409e+08 1.23828e+06 1.19203e+08)
(1.68009e+08 -198578 -502463 1.64667e+08 1.78904e+06 1.19464e+08)
(1.67399e+08 -799888 -3.1749e+06 1.62534e+08 201900 1.18887e+08)
(1.25451e+08 775133 -2.77823e+06 1.28008e+08 -181024 1.76264e+07)
(1.21122e+08 -1.04152e+06 517367 1.17589e+08 6.60052e+06 1.47936e+07)
(1.63964e+08 -1.98512e+06 1.02546e+06 1.57507e+08 -7.88292e+06 1.16555e+08)
(1.51424e+08 -147708 -1.25084e+06 1.57732e+08 -7.16258e+06 1.1159e+08)
(7.57899e+07 -1.6676e+06 -4.20678e+06 1.26846e+08 -4.10409e+06 1.0081e+08)
(7.6918e+07 1.2582e+06 2.48698e+06 1.29597e+08 -248653 1.00305e+08)
(1.52736e+08 116551 1.11274e+06 1.57721e+08 2.13085e+06 1.14168e+08)
(1.66595e+08 -1.11134e+06 -1.60751e+06 1.62947e+08 -1.44249e+06 1.18884e+08)
(1.28226e+08 988933 -71900.7 1.35279e+08 -2.12491e+06 1.95116e+07)
(1.66961e+08 863727 1.93057e+06 1.61367e+08 3.7949e+06 1.18622e+08)
(1.69521e+08 -2.20905e+06 -2.2131e+06 1.67447e+08 1.04286e+06 1.2047e+08)
(1.25646e+08 -352094 -119490 1.27428e+08 -6.48996e+06 1.75916e+07)
(1.69143e+08 1.77204e+06 3.02825e+06 1.65172e+08 -808380 1.19956e+08)
(1.68322e+08 1.00079e+06 -168314 1.66851e+08 1.43887e+06 1.20139e+08)
(1.68217e+08 914638 -2.63097e+06 1.63165e+08 4.53243e+06 1.19212e+08)
(1.26197e+08 -135125 -372820 1.31836e+08 7.44634e+06 1.79164e+07)
(1.69156e+08 -1.31698e+06 -1.17112e+06 1.64758e+08 3.82389e+06 1.19716e+08)
(1.26912e+08 -391579 480046 1.32558e+08 652304 1.79387e+07)
(1.69971e+08 2.08244e+06 2.14222e+06 1.6823e+08 1.68929e+06 1.20669e+08)
(1.68359e+08 1.63393e+06 -1.09754e+06 1.64809e+08 1.02794e+07 1.18674e+08)
(1.68538e+08 -1.58248e+06 1.13842e+06 1.64849e+08 1.02842e+07 1.18719e+08)
(1.69676e+08 -1.63839e+06 -1.49543e+06 1.67594e+08 1.95669e+06 1.20473e+08)
(1.24381e+08 518380 -556623 1.26781e+08 3.20714e+06 1.68187e+07)
(1.68798e+08 877786 529687 1.63805e+08 4.75994e+06 1.19398e+08)
(1.26405e+08 -136797 506605 1.31909e+08 7.47681e+06 1.79739e+07)
(1.68524e+08 -882394 2.65261e+06 1.63751e+08 4.03455e+06 1.1944e+08)
(1.69149e+08 -787170 477414 1.6687e+08 1.64268e+06 1.20311e+08)
(1.68651e+08 -125714 23504.3 1.64631e+08 -183284 1.1978e+08)
(1.69115e+08 -252882 -613389 1.67204e+08 975386 1.20383e+08)
(1.68091e+08 492381 -3.2641e+06 1.63372e+08 -1.49016e+06 1.19507e+08)
(1.25225e+08 1.14786e+06 -2.00458e+06 1.28674e+08 4.76702e+06 1.70911e+07)
(1.67456e+08 -2.25049e+06 -537875 1.61116e+08 4.55596e+06 1.1786e+08)
(1.21908e+08 -1.55838e+06 -1.00788e+06 1.25869e+08 -7.02683e+06 1.61504e+07)
(1.05848e+08 -53048.2 -5.34185e+06 1.19776e+08 -3.74665e+06 9.09001e+06)
(5.7163e+07 -1.89988e+06 -2.85938e+07 1.074e+08 -3.36597e+06 2.71216e+07)
(7.80417e+07 1.22553e+06 3.75154e+06 1.36307e+08 -1.57393e+06 1.02703e+08)
(1.52886e+08 11436.1 1.19728e+06 1.60618e+08 600565 1.13554e+08)
(1.70579e+08 581194 -1.71718e+06 1.72959e+08 -3.32001e+06 1.2108e+08)
(1.28449e+08 972384 419036 1.36133e+08 4.99883e+06 1.92173e+07)
(1.67727e+08 -696706 1.98381e+06 1.63932e+08 1.74258e+06 1.19445e+08)
(1.70264e+08 -917475 -3.00829e+06 1.69343e+08 645427 1.21099e+08)
(1.28901e+08 -545518 -339814 1.35298e+08 -2.30732e+06 1.87817e+07)
(1.69595e+08 761057 3.67359e+06 1.65618e+08 -2.20442e+06 1.20361e+08)
(1.69068e+08 955637 331444 1.68426e+08 888045 1.20717e+08)
(1.69235e+08 1.18466e+06 -1.7918e+06 1.65834e+08 2.85205e+06 1.20146e+08)
(1.68177e+08 -36891.2 -418138 1.63564e+08 7.0475e+06 1.1872e+08)
(1.70297e+08 -737757 -2.0022e+06 1.67454e+08 2.63391e+06 1.20678e+08)
(1.27844e+08 -245165 318534 1.34074e+08 4.08378e+06 1.81391e+07)
(1.70611e+08 608761 2.83658e+06 1.69166e+08 1.32161e+06 1.21098e+08)
(1.66359e+08 970692 -434038 1.59909e+08 6.5466e+06 1.18352e+08)
(1.66625e+08 -962039 493232 1.59973e+08 6.53552e+06 1.18417e+08)
(1.70199e+08 198713 -1.88257e+06 1.68214e+08 1.37766e+06 1.20824e+08)
(1.26096e+08 348145 -336442 1.30672e+08 8.24075e+06 1.7569e+07)
(1.69824e+08 -63349.5 1.05653e+06 1.66322e+08 3.25784e+06 1.20308e+08)
(1.68481e+08 -131881 436205 1.63664e+08 7.06981e+06 1.18801e+08)
(1.69613e+08 -1.16745e+06 1.82571e+06 1.66459e+08 2.53826e+06 1.20399e+08)
(1.70141e+08 -827293 69961 1.68679e+08 1.00088e+06 1.20984e+08)
(1.68776e+08 -96919.3 -37337.9 1.64574e+08 -1.8176e+06 1.20032e+08)
(1.70166e+08 -349549 -764497 1.69254e+08 487242 1.21107e+08)
(1.72049e+08 498981 -2.69723e+06 1.73067e+08 -3.5757e+06 1.21729e+08)
(1.66519e+08 544788 -1.56044e+06 1.5867e+08 3.07146e+06 1.17548e+08)
(1.68724e+08 -1.27078e+06 -1.73292e+06 1.64184e+08 -635532 1.19149e+08)
(1.24806e+08 -16765.7 -1.19542e+06 1.33224e+08 -2.83963e+06 1.7131e+07)
(1.5153e+08 -17638.7 -1.65111e+06 1.67106e+08 -1.26279e+06 1.06998e+08)
(5.77072e+07 -995626 -3.04926e+07 1.12845e+08 -1.03461e+06 2.92071e+07)
(5.84384e+07 148131 2.70174e+07 1.11223e+08 927101 2.6096e+07)
(1.52345e+08 79139.8 1.19905e+06 1.61668e+08 1.12252e+06 1.11488e+08)
(1.25387e+08 963413 -516561 1.33661e+08 1.22841e+06 1.87866e+07)
(1.70292e+08 -153949 868275 1.67264e+08 6.01139e+06 1.20019e+08)
(1.67723e+08 -1.07072e+06 1.23338e+06 1.64267e+08 -64617.6 1.1966e+08)
(1.7084e+08 214717 -3.19803e+06 1.70425e+08 473676 1.21488e+08)
(1.28861e+08 -848349 -689164 1.35129e+08 1.57154e+06 1.85526e+07)
(1.73553e+08 -97191.8 3.84233e+06 1.75199e+08 -3.88754e+06 1.22471e+08)
(1.69685e+08 1.06201e+06 842013 1.69728e+08 542712 1.21169e+08)
(1.6986e+08 317807 -1.40147e+06 1.6759e+08 1.61903e+06 1.20741e+08)
(1.65123e+08 32061 -416294 1.55596e+08 2.25868e+06 1.17387e+08)
(1.70756e+08 1.04718e+06 -1.93681e+06 1.68571e+08 1.77527e+06 1.21075e+08)
(1.25058e+08 -166991 216784 1.26957e+08 8.17316e+06 1.66352e+07)
(1.70788e+08 -728576 2.80988e+06 1.6923e+08 886903 1.21219e+08)
(1.68003e+08 564780 -54508.2 1.64033e+08 3.94843e+06 1.19634e+08)
(1.68447e+08 -630982 104784 1.64174e+08 3.92028e+06 1.19745e+08)
(1.70229e+08 775979 -1.32949e+06 1.67858e+08 566303 1.20857e+08)
(1.68872e+08 275526 -180865 1.63765e+08 7.8721e+06 1.19088e+08)
(1.70314e+08 -1.08683e+06 468556 1.67542e+08 2.0386e+06 1.20794e+08)
(1.65599e+08 -111509 365241 1.55764e+08 2.27074e+06 1.17511e+08)
(1.70161e+08 -308866 1.44182e+06 1.67983e+08 1.4396e+06 1.20895e+08)
(1.70831e+08 -1.01377e+06 -394138 1.70084e+08 601133 1.21469e+08)
(1.72541e+08 -45822.7 -79563.9 1.74074e+08 -3.799e+06 1.221e+08)
(1.70783e+08 793199 -966941 1.70741e+08 356219 1.21567e+08)
(1.26838e+08 -761297 -2.75733e+06 1.34088e+08 778634 1.91369e+07)
(1.66826e+08 88430.7 -1.40192e+06 1.5922e+08 -3.47823e+06 1.17998e+08)
(1.24026e+08 768714 -1.93381e+06 1.26668e+08 1.27872e+06 1.70335e+07)
(1.24229e+08 261118 -1.11715e+06 1.3198e+08 922450 1.65022e+07)
(1.04562e+08 100297 -5.57828e+06 1.21004e+08 2.86088e+06 6.75287e+06)
(5.75226e+07 -37301.4 -3.07518e+07 1.1254e+08 1.18328e+06 2.92046e+07)
(7.82026e+07 -880460 3.84066e+06 1.37344e+08 2.68814e+06 1.02951e+08)
(1.54204e+08 120063 1.25051e+06 1.63363e+08 1.93431e+06 1.14432e+08)
(1.70649e+08 179639 -746710 1.73333e+08 4.71227e+06 1.21131e+08)
(1.66939e+08 -1.32533e+06 193486 1.58857e+08 2.0602e+06 1.18449e+08)
(1.67728e+08 -315116 877590 1.63419e+08 -2.18793e+06 1.19656e+08)
(1.70961e+08 1.45365e+06 -2.79091e+06 1.70802e+08 378976 1.21634e+08)
(1.25411e+08 -1163.15 -1.21264e+06 1.26663e+08 5.68404e+06 1.67702e+07)
(1.28221e+08 -950655 3.58044e+06 1.3551e+08 683263 1.96e+07)
(1.70101e+08 65988.9 1.43314e+06 1.70587e+08 438722 1.21442e+08)
(1.70251e+08 -551840 -1.44832e+06 1.68867e+08 730123 1.21136e+08)
(1.65452e+08 51690.5 -386542 1.55568e+08 -2.42147e+06 1.17597e+08)
(1.71e+08 1.75004e+06 -929021 1.69177e+08 998591 1.21315e+08)
(1.67577e+08 -153440 140293 1.59616e+08 6.69033e+06 1.18227e+08)
(1.70635e+08 -849086 2.10087e+06 1.68603e+08 181280 1.21132e+08)
(1.69317e+08 389808 172615 1.66879e+08 2.30157e+06 1.20544e+08)
(1.69641e+08 -550036 -182865 1.67006e+08 2.26192e+06 1.20633e+08)
(1.69987e+08 147456 -1.09337e+06 1.66942e+08 -616432 1.20687e+08)
(1.66035e+08 299454 -41900.5 1.56708e+08 3.04281e+06 1.1788e+08)
(1.7067e+08 -1.04025e+06 -61960.1 1.68476e+08 967699 1.21115e+08)
(1.65773e+08 -63136.4 317097 1.55676e+08 -2.41948e+06 1.17683e+08)
(1.70497e+08 556431 1.49186e+06 1.69124e+08 630886 1.2124e+08)
(1.7118e+08 -77986.6 -978548 1.70961e+08 464475 1.21732e+08)
(1.2752e+08 186.34 -89246.1 1.34818e+08 526724 1.93735e+07)
(1.70802e+08 800050 42918.5 1.71231e+08 462268 1.2171e+08)
(1.72495e+08 -880809 -3.46553e+06 1.747e+08 4.31486e+06 1.22072e+08)
(1.25351e+08 -341542 -1.47487e+06 1.2911e+08 -3.72511e+06 1.71927e+07)
(1.69966e+08 1.57161e+06 -954304 1.67027e+08 2.54982e+06 1.20045e+08)
(1.20085e+08 522959 -873289 1.21688e+08 4.42912e+06 1.44524e+07)
(1.49326e+08 192604 -1.4828e+06 1.60166e+08 6.25938e+06 1.06987e+08)
(5.61865e+07 588278 -3.00908e+07 1.065e+08 3.45181e+06 2.71152e+07)
(7.72983e+07 -753056 2.69115e+06 1.319e+08 1.62964e+06 1.01114e+08)
(1.5527e+08 -26045.1 1.18699e+06 1.63763e+08 1.35966e+06 1.16111e+08)
(1.67339e+08 -510551 -889403 1.64978e+08 2.75131e+06 1.19611e+08)
(1.67115e+08 -1.43683e+06 -504839 1.59141e+08 -1.76959e+06 1.18634e+08)
(1.71652e+08 389799 897273 1.72342e+08 -4.75955e+06 1.21571e+08)
(1.71268e+08 1.68534e+06 -1.69151e+06 1.7118e+08 243891 1.21811e+08)
(1.71289e+08 823716 -698933 1.68163e+08 4.0122e+06 1.20092e+08)
(1.73483e+08 -683389 2.86122e+06 1.74997e+08 4.46453e+06 1.22399e+08)
(1.70249e+08 -844466 918422 1.7078e+08 404314 1.21551e+08)
(1.70957e+08 -1.54593e+06 -1.97345e+06 1.70202e+08 141917 1.21567e+08)
(1.68799e+08 33782.2 -362457 1.63272e+08 -7.59582e+06 1.19299e+08)
(1.71391e+08 1.52677e+06 -115172 1.70178e+08 319657 1.21624e+08)
(1.68561e+08 -227152 53012.4 1.62626e+08 435596 1.19057e+08)
(1.70349e+08 175607 1.93294e+06 1.67694e+08 -882803 1.20934e+08)
(1.69977e+08 395290 361703 1.68545e+08 1.24049e+06 1.21044e+08)
(1.70303e+08 -661141 -478676 1.68765e+08 1.20818e+06 1.21154e+08)
(1.69725e+08 -476141 -1.17305e+06 1.65872e+08 -2.22968e+06 1.20565e+08)
(1.66375e+08 454326 135862 1.57771e+08 -1.26746e+06 1.18259e+08)
(1.71152e+08 -1.22088e+06 -624105 1.69754e+08 150417 1.21498e+08)
(1.69046e+08 -11333.6 298084 1.63362e+08 -7.60168e+06 1.19366e+08)
(1.71163e+08 1.54834e+06 2.01874e+06 1.7038e+08 88084.7 1.21645e+08)
(1.71111e+08 811084 -482012 1.71099e+08 411116 1.21791e+08)
(1.73059e+08 14430.2 -80195.4 1.74771e+08 4.23717e+06 1.22298e+08)
(1.70675e+08 -324141 -143789 1.71012e+08 486251 1.21687e+08)
(1.69361e+08 128479 -3.65672e+06 1.665e+08 2.64278e+06 1.2055e+08)
(1.25059e+08 -853764 -1.77081e+06 1.27796e+08 1.26468e+06 1.68832e+07)
(1.70401e+08 22153.7 -242772 1.67586e+08 -1.74105e+06 1.2034e+08)
(1.65591e+08 827998 7666.84 1.61471e+08 1.40356e+06 1.17188e+08)
(1.47966e+08 556417 -1.17212e+06 1.5266e+08 3.15934e+06 1.08683e+08)
(7.61759e+07 958163 -6.34975e+06 1.33061e+08 2.31334e+06 1.03515e+08)
(7.76857e+07 -415594 2.14334e+06 1.32756e+08 843242 1.00763e+08)
(1.55668e+08 -67135.9 1.08656e+06 1.63893e+08 737467 1.16699e+08)
(1.67912e+08 -1.21713e+06 -1.34167e+06 1.66845e+08 1.25391e+06 1.20077e+08)
(1.70871e+08 -512820 -1.29849e+06 1.68232e+08 -5.73031e+06 1.20633e+08)
(1.26202e+08 1.15371e+06 1.29591e+06 1.3222e+08 -1.39095e+06 1.8514e+07)
(1.71322e+08 909544 -1.03722e+06 1.71375e+08 205461 1.21833e+08)
(1.22558e+08 441149 -369122 1.20891e+08 3.39862e+06 1.55803e+07)
(1.69804e+08 -574219 2.8572e+06 1.65889e+08 2.51617e+06 1.20544e+08)
(1.69857e+08 -497484 569398 1.70532e+08 272128 1.21448e+08)
(1.7155e+08 -1.50988e+06 -3.04847e+06 1.71418e+08 -84810.5 1.21921e+08)
(1.26369e+08 24133.6 -350127 1.30709e+08 -7.4459e+06 1.77883e+07)
(1.71827e+08 1.67543e+06 677471 1.7137e+08 42113.5 1.21923e+08)
(1.23696e+08 -445651 -99798.6 1.25239e+08 1.26288e+06 1.65909e+07)
(1.69995e+08 -117364 2.26203e+06 1.66494e+08 -2.29342e+06 1.20729e+08)
(1.70172e+08 543564 590931 1.69492e+08 532755 1.21294e+08)
(1.70616e+08 -919565 -876810 1.6994e+08 556152 1.21467e+08)
(1.73527e+08 -1.18754e+06 -1.58849e+06 1.75235e+08 -4.19982e+06 1.22535e+08)
(1.70034e+08 773179 434054 1.67337e+08 -5.56158e+06 1.20363e+08)
(1.7172e+08 -376192 -1.32904e+06 1.71335e+08 -235250 1.21923e+08)
(1.26597e+08 23947.8 303853 1.30803e+08 -7.45314e+06 1.78481e+07)
(1.71729e+08 1.51087e+06 3.09465e+06 1.71551e+08 -111923 1.21984e+08)
(1.70736e+08 463589 -149412 1.70879e+08 270607 1.21692e+08)
(1.6957e+08 13143.6 -71736.8 1.65971e+08 2.31155e+06 1.20562e+08)
(1.7067e+08 -188799 -275423 1.70783e+08 340171 1.21651e+08)
(1.69805e+08 -135571 -3.35039e+06 1.67921e+08 1.33612e+06 1.20882e+08)
(1.69973e+08 -217364 -2.33778e+06 1.66264e+08 -368618 1.19577e+08)
(1.25332e+08 -156396 -976814 1.28669e+08 287303 1.75541e+07)
(1.2114e+08 -90145 40975.2 1.23585e+08 -928191 1.51656e+07)
(1.48107e+08 875860 -629420 1.52503e+08 274066 1.08365e+08)
(5.58118e+07 1.15735e+06 -2.78479e+07 1.02491e+08 1.88956e+06 2.42582e+07)
(7.79149e+07 -127721 1.86901e+06 1.33331e+08 255836 1.00743e+08)
(1.55615e+08 -33925.4 1.01285e+06 1.6388e+08 223761 1.16807e+08)
(1.686e+08 -792563 -2.15667e+06 1.68298e+08 329299 1.20499e+08)
(1.29213e+08 260350 -973031 1.37752e+08 -3.85497e+06 1.96308e+07)
(1.71665e+08 785909 2.08468e+06 1.71337e+08 1.5887e+06 1.21446e+08)
(1.71018e+08 287747 -733702 1.71038e+08 138012 1.21761e+08)
(1.68378e+08 128722 -236654 1.61547e+08 3.10708e+06 1.18833e+08)
(1.69977e+08 -588263 2.25703e+06 1.66569e+08 814932 1.20648e+08)
(1.69889e+08 -158147 398288 1.70524e+08 101345 1.21454e+08)
(1.71891e+08 -445287 -3.53807e+06 1.72123e+08 -14208.6 1.22136e+08)