/*--------------------------------*- C++ -*----------------------------------*\
| =========                 |                                                 |
| \\      /  F ield         | OpenFOAM: The Open Source CFD Toolbox           |
|  \\    /   O peration     | Version:  2106                                  |
|   \\  /    A nd           | Website:  www.openfoam.com                      |
|    \\/     M anipulation  |                                                 |
\*---------------------------------------------------------------------------*/
FoamFile
{
    version     2.0;
    format      ascii;
    arch        "LSB;label=32;scalar=64";
    class       volVectorField;
    location    "226";
    object      D;
}
// * * * * * * * * * * * * * * * * * * * * * * * * * * * * * * * * * * * * * //

dimensions      [0 1 0 0 0 0 0];

internalField   nonuniform List<vector> 
9000
(
(1.62474e-05 -1.1034e-05 -4.57653e-05)
(1.81281e-05 -2.34706e-05 -6.62109e-05)
(1.79725e-05 -2.1677e-05 -5.68207e-05)
(1.32861e-05 -1.13088e-05 -3.24697e-05)
(7.37255e-06 1.83746e-06 -3.03588e-05)
(3.07552e-06 -1.44211e-06 -2.60919e-05)
(-9.28056e-07 -7.40041e-07 -3.43845e-05)
(-7.97398e-07 -1.40171e-05 -5.62803e-05)
(9.24751e-07 -1.4405e-05 -3.73901e-05)
(1.51573e-06 -1.3823e-05 -5.72257e-05)
(5.41859e-06 -2.11603e-06 -4.3591e-05)
(7.2e-07 5.04216e-06 -2.47885e-05)
(-2.57341e-06 -1.58979e-06 -4.08188e-05)
(-5.85438e-07 -1.01922e-05 -4.01226e-05)
(-7.48677e-07 -2.47227e-06 -4.457e-05)
(2.55784e-07 -2.69632e-06 -4.45764e-05)
(-1.29891e-06 -1.25888e-05 -4.17687e-05)
(-1.86768e-06 -1.13705e-05 -5.27485e-05)
(1.88806e-06 -1.2733e-05 -5.91648e-05)
(4.93956e-06 -2.14774e-06 -4.35083e-05)
(9.05518e-07 3.17684e-06 -2.35545e-05)
(-4.80075e-06 -8.0023e-06 -3.11258e-05)
(-3.33559e-06 -1.91445e-05 -5.91551e-05)
(-2.90384e-06 -1.6348e-05 -3.78982e-05)
(-4.39586e-06 -1.5171e-05 -5.18473e-05)
(-2.53202e-06 -9.1515e-06 -4.80389e-05)
(-7.91997e-06 -3.67874e-06 -3.04158e-05)
(-1.66934e-05 -4.74711e-06 -3.52626e-05)
(-2.3653e-05 -1.16851e-05 -3.9947e-05)
(-3.52571e-05 9.59557e-06 -1.55912e-05)
(1.96249e-05 -5.78405e-06 -3.95059e-05)
(1.8966e-05 -8.96762e-06 -4.68848e-05)
(1.58683e-05 -1.22521e-05 -4.75862e-05)
(1.13639e-05 -1.00923e-05 -3.50848e-05)
(6.52027e-06 2.44512e-06 -3.5258e-05)
(3.31445e-06 -2.21364e-06 -3.29037e-05)
(1.26648e-06 1.3734e-06 -3.72679e-05)
(5.49853e-07 -2.52245e-06 -4.19219e-05)
(9.86768e-07 -1.11882e-05 -3.66339e-05)
(7.6147e-07 -1.87208e-06 -4.27913e-05)
(2.62724e-06 2.82591e-06 -4.28912e-05)
(6.0804e-07 4.52592e-06 -3.3059e-05)
(-5.78767e-07 2.39043e-06 -4.09597e-05)
(-3.18259e-07 -3.82445e-06 -3.28957e-05)
(-1.32689e-06 2.71444e-06 -4.31639e-05)
(1.10709e-06 2.4964e-06 -4.3107e-05)
(-5.41707e-07 -5.63963e-06 -3.34772e-05)
(-1.39164e-06 -2.65822e-06 -4.66681e-05)
(7.93544e-07 -3.71689e-08 -4.45878e-05)
(2.28066e-06 2.75828e-06 -4.28283e-05)
(7.22881e-07 2.15421e-06 -3.16247e-05)
(-2.18725e-06 -6.92146e-06 -3.41614e-05)
(-2.54046e-06 -6.70913e-06 -4.2319e-05)
(-3.84706e-06 -1.3177e-05 -3.69992e-05)
(-4.5338e-06 -7.63745e-06 -4.63699e-05)
(-3.76046e-06 -3.03482e-06 -4.47884e-05)
(-8.5872e-06 -2.97995e-06 -3.5085e-05)
(-1.58618e-05 -2.30363e-06 -3.69344e-05)
(-2.45008e-05 -5.77337e-06 -3.31743e-05)
(-3.75979e-05 6.9074e-06 -2.23549e-05)
(2.24865e-05 -5.06864e-07 -3.13254e-05)
(1.95132e-05 -1.37798e-06 -3.51678e-05)
(1.46534e-05 -4.282e-06 -3.87577e-05)
(1.00448e-05 -3.91715e-06 -3.4311e-05)
(5.89367e-06 5.84395e-06 -3.36323e-05)
(3.40364e-06 2.62793e-06 -3.34856e-05)
(2.5707e-06 5.94738e-06 -3.47613e-05)
(1.56801e-06 3.67075e-06 -3.24633e-05)
(1.09275e-06 -4.10302e-06 -3.40163e-05)
(3.3137e-07 4.59317e-06 -3.30373e-05)
(7.94087e-07 8.35482e-06 -3.70455e-05)
(4.80994e-07 8.96509e-06 -3.34639e-05)
(5.14259e-07 7.6052e-06 -3.60137e-05)
(-3.31531e-09 2.09613e-06 -2.91421e-05)
(-1.14191e-06 7.79223e-06 -3.65274e-05)
(1.14808e-06 7.56625e-06 -3.64988e-05)
(1.03666e-08 5.59894e-07 -2.93504e-05)
(-8.92734e-07 4.28352e-06 -3.74275e-05)
(-1.53261e-07 6.65976e-06 -3.41422e-05)
(4.53006e-07 8.27405e-06 -3.70316e-05)
(3.50612e-07 6.49646e-06 -3.25516e-05)
(-7.27409e-07 -1.00286e-06 -3.32981e-05)
(-1.93908e-06 6.7494e-08 -3.22282e-05)
(-4.04829e-06 -6.00761e-06 -3.45336e-05)
(-4.43894e-06 -6.4045e-07 -3.89029e-05)
(-4.6502e-06 3.30205e-06 -3.81834e-05)
(-9.32683e-06 2.7726e-06 -3.40435e-05)
(-1.59665e-05 2.56601e-06 -3.45664e-05)
(-2.49015e-05 -2.83242e-07 -3.0338e-05)
(-3.87926e-05 8.62642e-06 -2.19133e-05)
(2.46388e-05 3.38826e-06 -2.32964e-05)
(1.97261e-05 2.76748e-06 -2.89413e-05)
(1.43517e-05 1.28038e-06 -3.07565e-05)
(9.22099e-06 2.11566e-06 -3.01391e-05)
(5.4779e-06 9.19444e-06 -2.96945e-05)
(3.42328e-06 7.55482e-06 -2.98255e-05)
(2.90566e-06 9.79704e-06 -2.99998e-05)
(2.11107e-06 7.21135e-06 -2.73075e-05)
(1.1822e-06 2.1895e-06 -2.92444e-05)
(1.82845e-07 8.10375e-06 -2.75291e-05)
(1.25667e-07 1.22287e-05 -3.01759e-05)
(3.69109e-07 1.26432e-05 -2.90611e-05)
(6.61171e-07 1.1573e-05 -2.98219e-05)
(1.96286e-07 6.76852e-06 -2.68526e-05)
(-5.37707e-07 1.14025e-05 -2.98322e-05)
(7.03033e-07 1.11776e-05 -2.98433e-05)
(3.08042e-07 5.39331e-06 -2.69131e-05)
(-5.30882e-07 8.28003e-06 -2.92136e-05)
(-6.9718e-07 1.00085e-05 -2.81033e-05)
(-2.65046e-07 1.21541e-05 -3.02034e-05)
(6.9512e-10 1.03846e-05 -2.85789e-05)
(-3.79698e-07 4.57706e-06 -2.921e-05)
(-1.54399e-06 4.14797e-06 -2.70229e-05)
(-3.59393e-06 4.65934e-07 -2.96536e-05)
(-4.2266e-06 4.31658e-06 -3.11942e-05)
(-5.12666e-06 7.91083e-06 -3.07654e-05)
(-1.00141e-05 7.7338e-06 -2.87267e-05)
(-1.67664e-05 6.79089e-06 -3.01024e-05)
(-2.50645e-05 4.18917e-06 -2.88033e-05)
(-4.00455e-05 1.11186e-05 -1.8162e-05)
(2.61938e-05 5.41679e-06 -1.79611e-05)
(1.97053e-05 5.10445e-06 -2.62472e-05)
(1.44547e-05 4.31189e-06 -2.56219e-05)
(8.8187e-06 5.90885e-06 -2.62327e-05)
(5.219e-06 1.1362e-05 -2.61127e-05)
(3.3666e-06 1.03064e-05 -2.60465e-05)
(2.77085e-06 1.17793e-05 -2.63149e-05)
(2.2634e-06 9.25941e-06 -2.50084e-05)
(1.22838e-06 5.94124e-06 -2.53547e-05)
(2.21581e-07 9.95605e-06 -2.49892e-05)
(4.24149e-08 1.33449e-05 -2.52283e-05)
(2.85759e-07 1.38576e-05 -2.50744e-05)
(4.38341e-07 1.29717e-05 -2.53624e-05)
(3.17523e-07 9.77123e-06 -2.55169e-05)
(8.6611e-08 1.28687e-05 -2.5039e-05)
(1.70668e-07 1.26527e-05 -2.50714e-05)
(3.41128e-07 8.53277e-06 -2.55043e-05)
(-3.12021e-07 1.02351e-05 -2.46326e-05)
(-8.67383e-07 1.15536e-05 -2.53138e-05)
(-4.10427e-07 1.32801e-05 -2.52763e-05)
(-2.77175e-07 1.19125e-05 -2.47745e-05)
(-4.9945e-07 7.75983e-06 -2.54585e-05)
(-1.31391e-06 6.69978e-06 -2.47779e-05)
(-2.97732e-06 4.38525e-06 -2.55106e-05)
(-3.96982e-06 6.83097e-06 -2.59224e-05)
(-5.36823e-06 9.63298e-06 -2.53538e-05)
(-1.05122e-05 9.51928e-06 -2.40377e-05)
(-1.75704e-05 9.1219e-06 -2.66017e-05)
(-2.52474e-05 7.28112e-06 -2.79842e-05)
(-4.17244e-05 1.27065e-05 -1.47428e-05)
(2.68432e-05 6.26659e-06 -1.57783e-05)
(1.95643e-05 6.47501e-06 -2.54186e-05)
(1.46221e-05 5.83372e-06 -2.35117e-05)
(8.72027e-06 7.96348e-06 -2.41883e-05)
(5.05243e-06 1.20088e-05 -2.3547e-05)
(3.25429e-06 1.12478e-05 -2.39584e-05)
(2.54592e-06 1.25953e-05 -2.47265e-05)
(2.17548e-06 1.03444e-05 -2.4256e-05)
(1.23303e-06 7.72915e-06 -2.35157e-05)
(2.93211e-07 1.07519e-05 -2.41544e-05)
(1.27058e-07 1.32048e-05 -2.35053e-05)
(2.39279e-07 1.32584e-05 -2.30062e-05)
(2.00052e-07 1.32571e-05 -2.40551e-05)
(4.01808e-07 1.12872e-05 -2.4893e-05)
(4.85254e-07 1.28662e-05 -2.27547e-05)
(-1.93232e-07 1.26718e-05 -2.27999e-05)
(3.15652e-07 1.01621e-05 -2.48299e-05)
(-1.86309e-07 1.07224e-05 -2.24581e-05)
(-9.30376e-07 1.20324e-05 -2.43935e-05)
(-3.86123e-07 1.31537e-05 -2.35655e-05)
(-4.29674e-07 1.15831e-05 -2.27325e-05)
(-6.89799e-07 9.03724e-06 -2.35723e-05)
(-1.19564e-06 8.20296e-06 -2.40549e-05)
(-2.50114e-06 6.32788e-06 -2.34694e-05)
(-3.78295e-06 7.84757e-06 -2.36164e-05)
(-5.53255e-06 1.00297e-05 -2.34311e-05)
(-1.07062e-05 9.44235e-06 -2.22833e-05)
(-1.80099e-05 1.02216e-05 -2.51127e-05)
(-2.56067e-05 9.16327e-06 -2.7703e-05)
(-4.36179e-05 1.35389e-05 -1.29671e-05)
(2.6567e-05 6.65847e-06 -1.57533e-05)
(1.93844e-05 7.29721e-06 -2.53998e-05)
(1.47681e-05 6.74571e-06 -2.32908e-05)
(8.73254e-06 9.13067e-06 -2.34643e-05)
(4.91271e-06 1.10606e-05 -2.22741e-05)
(3.20348e-06 1.12313e-05 -2.34058e-05)
(2.38569e-06 1.3069e-05 -2.44314e-05)
(1.95111e-06 1.07515e-05 -2.41904e-05)
(1.19038e-06 8.44923e-06 -2.3244e-05)
(4.25476e-07 1.07576e-05 -2.40666e-05)
(1.42887e-07 1.29074e-05 -2.29038e-05)
(2.45379e-07 1.21598e-05 -2.3212e-05)
(1.39114e-07 1.359e-05 -2.37554e-05)
(3.97621e-07 1.16997e-05 -2.46834e-05)
(6.81227e-07 1.16955e-05 -2.16417e-05)
(-3.9914e-07 1.15349e-05 -2.16784e-05)
(1.98819e-07 1.06698e-05 -2.46166e-05)
(-1.2204e-07 1.01785e-05 -2.23244e-05)
(-8.28539e-07 1.17566e-05 -2.42702e-05)
(-4.3188e-07 1.28739e-05 -2.29553e-05)
(-5.74226e-07 1.0686e-05 -2.29851e-05)
(-7.27404e-07 9.34932e-06 -2.32665e-05)
(-1.14218e-06 8.92745e-06 -2.40031e-05)
(-2.22236e-06 7.22946e-06 -2.31049e-05)
(-3.58825e-06 8.28292e-06 -2.32935e-05)
(-5.66435e-06 1.03132e-05 -2.29004e-05)
(-1.07024e-05 9.24603e-06 -2.26915e-05)
(-1.80931e-05 1.09503e-05 -2.4889e-05)
(-2.61835e-05 1.01177e-05 -2.77375e-05)
(-4.52088e-05 1.40227e-05 -1.2307e-05)
(2.52394e-05 6.94386e-06 -1.65061e-05)
(1.92074e-05 7.7483e-06 -2.55665e-05)
(1.48916e-05 7.38863e-06 -2.36937e-05)
(8.6403e-06 9.515e-06 -2.29127e-05)
(4.75934e-06 9.67262e-06 -2.29357e-05)
(3.3816e-06 1.07612e-05 -2.36319e-05)
(2.31438e-06 1.32274e-05 -2.41096e-05)
(1.63688e-06 1.06164e-05 -2.433e-05)
(1.08466e-06 8.60923e-06 -2.3672e-05)
(5.82834e-07 1.02073e-05 -2.42144e-05)
(1.58574e-07 1.15563e-05 -2.23306e-05)
(3.29283e-07 1.13704e-05 -2.39298e-05)
(1.65003e-07 1.30197e-05 -2.3018e-05)
(1.81693e-07 1.13124e-05 -2.46448e-05)
(6.21104e-07 9.60219e-06 -2.21706e-05)
(-3.76646e-07 9.46987e-06 -2.21802e-05)
(1.4449e-07 1.04132e-05 -2.46168e-05)
(-1.14242e-07 9.71888e-06 -2.31184e-05)
(-6.25996e-07 1.09598e-05 -2.43589e-05)
(-4.798e-07 1.15306e-05 -2.23544e-05)
(-7.14808e-07 1.01309e-05 -2.38541e-05)
(-6.80655e-07 9.23854e-06 -2.36894e-05)
(-1.12469e-06 9.05511e-06 -2.4193e-05)
(-2.08339e-06 7.59772e-06 -2.35043e-05)
(-3.38777e-06 8.51425e-06 -2.37407e-05)
(-5.72056e-06 9.64974e-06 -2.25547e-05)
(-1.05362e-05 8.9342e-06 -2.33206e-05)
(-1.80139e-05 1.13623e-05 -2.46207e-05)
(-2.69189e-05 1.02548e-05 -2.78381e-05)
(-4.5991e-05 1.40114e-05 -1.16694e-05)
(2.30959e-05 7.00032e-06 -1.70613e-05)
(1.9003e-05 7.74301e-06 -2.56604e-05)
(1.49667e-05 7.65486e-06 -2.38808e-05)
(8.4931e-06 8.4843e-06 -2.22729e-05)
(4.63251e-06 8.78805e-06 -2.40761e-05)
(3.68384e-06 9.96355e-06 -2.4043e-05)
(2.30741e-06 1.22865e-05 -2.32258e-05)
(1.28616e-06 9.97374e-06 -2.44852e-05)
(9.38881e-07 8.37362e-06 -2.42033e-05)
(6.14167e-07 9.3391e-06 -2.4445e-05)
(1.98289e-07 9.29544e-06 -2.30176e-05)
(4.98444e-07 1.042e-05 -2.44091e-05)
(2.04199e-07 1.11891e-05 -2.26457e-05)
(-1.22662e-07 1.03473e-05 -2.46795e-05)
(3.70858e-07 8.11202e-06 -2.40126e-05)
(-1.72106e-07 8.00035e-06 -2.40024e-05)
(2.5708e-07 9.62965e-06 -2.46818e-05)
(-1.38919e-07 8.83802e-06 -2.32503e-05)
(-5.70404e-07 9.83556e-06 -2.45042e-05)
(-4.90479e-07 9.26751e-06 -2.30178e-05)
(-7.02193e-07 9.53443e-06 -2.44988e-05)
(-6.12071e-07 8.83216e-06 -2.42094e-05)
(-1.12824e-06 8.70769e-06 -2.44337e-05)
(-2.01374e-06 7.54923e-06 -2.4013e-05)
(-3.31881e-06 8.51346e-06 -2.4084e-05)
(-5.79577e-06 8.21884e-06 -2.33924e-05)
(-1.01743e-05 8.49775e-06 -2.43264e-05)
(-1.78498e-05 1.06779e-05 -2.37958e-05)
(-2.76549e-05 9.55396e-06 -2.78633e-05)
(-4.6115e-05 1.28651e-05 -1.05246e-05)
(2.08119e-05 6.47845e-06 -1.71135e-05)
(1.86693e-05 7.18202e-06 -2.56664e-05)
(1.48977e-05 7.16826e-06 -2.35962e-05)
(8.38073e-06 6.40988e-06 -2.28593e-05)
(4.6691e-06 8.0858e-06 -2.49924e-05)
(3.9221e-06 8.85431e-06 -2.44621e-05)
(2.33649e-06 1.01298e-05 -2.27247e-05)
(1.01749e-06 8.87846e-06 -2.46895e-05)
(7.93623e-07 7.76673e-06 -2.46116e-05)
(5.25466e-07 8.29753e-06 -2.47496e-05)
(2.31192e-07 7.74741e-06 -2.49355e-05)
(6.80931e-07 9.16026e-06 -2.4835e-05)
(2.34992e-07 8.77406e-06 -2.29536e-05)
(-3.17889e-07 9.04131e-06 -2.48302e-05)
(1.47565e-07 7.53544e-06 -2.53413e-05)
(1.27995e-08 7.44386e-06 -2.5318e-05)
(3.0394e-07 8.5261e-06 -2.48352e-05)
(-1.73014e-07 7.07631e-06 -2.38351e-05)
(-5.78709e-07 8.54212e-06 -2.48021e-05)
(-4.6694e-07 7.71219e-06 -2.49149e-05)
(-5.51648e-07 8.68511e-06 -2.4936e-05)
(-5.42218e-07 8.10179e-06 -2.45903e-05)
(-1.14761e-06 7.95796e-06 -2.46611e-05)
(-1.97487e-06 7.05127e-06 -2.4399e-05)
(-3.34775e-06 7.9402e-06 -2.3927e-05)
(-5.84362e-06 7.49564e-06 -2.49619e-05)
(-9.85059e-06 8.09049e-06 -2.4725e-05)
(-1.78075e-05 8.81724e-06 -2.34135e-05)
(-2.81731e-05 8.21697e-06 -2.79366e-05)
(-4.65854e-05 1.05963e-05 -9.55829e-06)
(1.90355e-05 5.03391e-06 -1.71382e-05)
(1.82621e-05 6.12682e-06 -2.56869e-05)
(1.47093e-05 5.56005e-06 -2.33706e-05)
(8.37889e-06 4.94691e-06 -2.46683e-05)
(4.85261e-06 7.42799e-06 -2.55786e-05)
(4.00014e-06 7.53956e-06 -2.48451e-05)
(2.36897e-06 7.45636e-06 -2.29259e-05)
(8.77944e-07 7.45056e-06 -2.4954e-05)
(6.86438e-07 6.8141e-06 -2.48743e-05)
(4.68367e-07 7.15784e-06 -2.50283e-05)
(2.38114e-07 7.34208e-06 -2.64014e-05)
(6.90596e-07 7.79601e-06 -2.52736e-05)
(2.51286e-07 6.42161e-06 -2.40036e-05)
(-3.40268e-07 7.61626e-06 -2.5046e-05)
(2.7489e-08 6.97747e-06 -2.57045e-05)
(1.09263e-07 6.9008e-06 -2.56708e-05)
(2.12429e-07 7.28999e-06 -2.50404e-05)
(-2.03109e-07 5.70696e-06 -2.53114e-05)
(-4.8549e-07 7.24764e-06 -2.51661e-05)
(-4.28689e-07 7.28528e-06 -2.63652e-05)
(-4.45388e-07 7.62519e-06 -2.52219e-05)
(-4.92427e-07 7.03981e-06 -2.48292e-05)
(-1.18013e-06 6.83415e-06 -2.48588e-05)
(-1.98137e-06 6.13138e-06 -2.4695e-05)
(-3.29432e-06 6.29087e-06 -2.36535e-05)
(-5.83442e-06 7.3352e-06 -2.53512e-05)
(-9.79626e-06 6.89444e-06 -2.46234e-05)
(-1.78955e-05 6.56413e-06 -2.37948e-05)
(-2.84091e-05 6.63255e-06 -2.8108e-05)
(-4.74154e-05 7.70492e-06 -9.21134e-06)
(1.82213e-05 3.36944e-06 -1.81832e-05)
(1.79547e-05 4.80749e-06 -2.58147e-05)
(1.45558e-05 3.78223e-06 -2.42945e-05)
(8.56302e-06 4.59343e-06 -2.60187e-05)
(5.00291e-06 6.73727e-06 -2.56241e-05)
(3.86265e-06 6.10279e-06 -2.51066e-05)
(2.36506e-06 4.9347e-06 -2.38646e-05)
(8.80572e-07 5.79511e-06 -2.51677e-05)
(6.42507e-07 5.56818e-06 -2.50193e-05)
(5.09237e-07 5.89938e-06 -2.51905e-05)
(2.27446e-07 7.29269e-06 -2.67213e-05)
(4.87874e-07 6.41063e-06 -2.55453e-05)
(2.52358e-07 4.97722e-06 -2.54103e-05)
(-2.43039e-07 6.14634e-06 -2.51932e-05)
(-2.41657e-08 5.97353e-06 -2.55419e-05)
(1.50729e-07 5.90477e-06 -2.55061e-05)
(1.16611e-07 5.96025e-06 -2.51901e-05)
(-2.25815e-07 5.21292e-06 -2.635e-05)
(-3.39835e-07 5.94758e-06 -2.53985e-05)
(-3.97488e-07 7.19867e-06 -2.66966e-05)
(-4.75332e-07 6.37002e-06 -2.53316e-05)
(-4.92779e-07 5.69408e-06 -2.49769e-05)
(-1.21767e-06 5.38159e-06 -2.50026e-05)
(-2.09527e-06 4.92652e-06 -2.49481e-05)
(-3.14964e-06 4.34539e-06 -2.44417e-05)
(-5.74944e-06 6.20725e-06 -2.46318e-05)
(-9.96211e-06 5.44326e-06 -2.51078e-05)
(-1.79624e-05 4.6517e-06 -2.48045e-05)
(-2.84256e-05 5.12114e-06 -2.83e-05)
(-4.79372e-05 4.87748e-06 -9.93537e-06)
(1.77957e-05 2.20703e-06 -1.92424e-05)
(1.77988e-05 3.4225e-06 -2.59504e-05)
(1.45241e-05 2.7034e-06 -2.51563e-05)
(8.80769e-06 4.5303e-06 -2.61336e-05)
(5.02189e-06 5.62018e-06 -2.5018e-05)
(3.56852e-06 4.5522e-06 -2.52478e-05)
(2.3064e-06 3.22317e-06 -2.50479e-05)
(9.6592e-07 4.09686e-06 -2.5276e-05)
(6.6946e-07 4.10495e-06 -2.5104e-05)
(6.61216e-07 4.46479e-06 -2.52219e-05)
(2.13234e-07 6.81116e-06 -2.57881e-05)
(2.14454e-07 4.88089e-06 -2.55525e-05)
(2.44448e-07 4.14444e-06 -2.57135e-05)
(-1.9118e-07 4.5899e-06 -2.52391e-05)
(-5.57037e-08 4.52434e-06 -2.53093e-05)
(1.78862e-07 4.45446e-06 -2.52693e-05)
(1.03728e-07 4.47021e-06 -2.52559e-05)
(-2.43583e-07 4.87547e-06 -2.63135e-05)
(-1.87339e-07 4.50907e-06 -2.54238e-05)
(-3.81134e-07 6.67708e-06 -2.58122e-05)
(-6.58188e-07 4.8687e-06 -2.52612e-05)
(-5.57432e-07 4.1458e-06 -2.50824e-05)
(-1.24876e-06 3.7985e-06 -2.50756e-05)
(-2.19617e-06 3.57016e-06 -2.51364e-05)
(-3.06251e-06 2.97465e-06 -2.52826e-05)
(-5.60103e-06 4.17181e-06 -2.45548e-05)
(-1.00977e-05 4.23583e-06 -2.51677e-05)
(-1.80467e-05 3.59677e-06 -2.56342e-05)
(-2.83063e-05 3.79598e-06 -2.8452e-05)
(-4.77622e-05 2.95473e-06 -1.12935e-05)
(1.73383e-05 1.25884e-06 -1.98164e-05)
(1.77181e-05 2.01869e-06 -2.60317e-05)
(1.46346e-05 1.77576e-06 -2.53861e-05)
(9.0042e-06 3.84243e-06 -2.50422e-05)
(4.91106e-06 3.56761e-06 -2.42856e-05)
(3.31074e-06 2.92804e-06 -2.53508e-05)
(2.23347e-06 1.84919e-06 -2.55416e-05)
(1.01668e-06 2.50872e-06 -2.52953e-05)
(7.22164e-07 2.53546e-06 -2.51814e-05)
(8.7804e-07 2.82407e-06 -2.5164e-05)
(2.00119e-07 4.95943e-06 -2.40326e-05)
(-5.93898e-08 3.08375e-06 -2.54074e-05)
(2.42607e-07 2.59159e-06 -2.52276e-05)
(-2.01493e-07 2.90242e-06 -2.52587e-05)
(-9.16349e-08 2.79639e-06 -2.51825e-05)
(2.04818e-07 2.70838e-06 -2.51349e-05)
(1.90142e-07 2.73739e-06 -2.526e-05)
(-2.57609e-07 3.87393e-06 -2.51738e-05)
(-7.26857e-08 2.81414e-06 -2.5291e-05)
(-3.75994e-07 4.80476e-06 -2.41413e-05)
(-9.27322e-07 3.07631e-06 -2.50802e-05)
(-6.40814e-07 2.49465e-06 -2.5177e-05)
(-1.26808e-06 2.24785e-06 -2.50722e-05)
(-2.25183e-06 2.14696e-06 -2.52651e-05)
(-3.03718e-06 1.82255e-06 -2.56955e-05)
(-5.46095e-06 2.50904e-06 -2.50156e-05)
(-1.00982e-05 2.45906e-06 -2.48451e-05)
(-1.81444e-05 2.42641e-06 -2.52453e-05)
(-2.81229e-05 2.53105e-06 -2.85705e-05)
(-4.69991e-05 1.59965e-06 -1.21263e-05)
(1.68332e-05 2.6259e-07 -1.99575e-05)
(1.77285e-05 5.66048e-07 -2.60376e-05)
(1.47812e-05 5.85642e-07 -2.52846e-05)
(9.05187e-06 1.70024e-06 -2.36003e-05)
(4.77334e-06 1.34706e-06 -2.44944e-05)
(3.16636e-06 1.31441e-06 -2.54219e-05)
(2.17865e-06 7.54738e-07 -2.62387e-05)
(1.07832e-06 1.02005e-06 -2.52918e-05)
(7.5355e-07 9.30888e-07 -2.5219e-05)
(9.99841e-07 9.91744e-07 -2.5074e-05)
(1.88736e-07 1.76874e-06 -2.298e-05)
(-2.66022e-07 1.05064e-06 -2.5261e-05)
(2.5608e-07 7.46432e-07 -2.54269e-05)
(-1.68772e-07 1.06703e-06 -2.53019e-05)
(-1.34839e-07 9.32666e-07 -2.51392e-05)
(2.06944e-07 8.15051e-07 -2.50942e-05)
(3.03261e-07 7.37495e-07 -2.52193e-05)
(-2.5721e-07 1.37072e-06 -2.36835e-05)
(-6.49603e-08 8.19568e-07 -2.51257e-05)
(-3.71961e-07 1.64788e-06 -2.3162e-05)
(-1.09262e-06 1.01562e-06 -2.49021e-05)
(-6.93721e-07 8.05482e-07 -2.52326e-05)
(-1.27444e-06 7.33458e-07 -2.50635e-05)
(-2.26708e-06 6.99926e-07 -2.53258e-05)
(-2.98983e-06 5.92092e-07 -2.57466e-05)
(-5.43389e-06 8.84422e-07 -2.47958e-05)
(-1.01362e-05 6.04844e-07 -2.52109e-05)
(-1.81368e-05 5.54413e-07 -2.5212e-05)
(-2.79885e-05 1.23034e-06 -2.87215e-05)
(-4.65493e-05 6.88454e-07 -1.29994e-05)
(1.67981e-05 -8.19515e-07 -1.99685e-05)
(1.7748e-05 -9.30072e-07 -2.60334e-05)
(1.48096e-05 -7.81374e-07 -2.52876e-05)
(9.08911e-06 -1.34617e-06 -2.36014e-05)
(4.79692e-06 -4.48716e-07 -2.44895e-05)
(3.16123e-06 -2.54335e-07 -2.5418e-05)
(2.15913e-06 1.56496e-07 -2.62409e-05)
(1.05513e-06 -4.19264e-07 -2.52906e-05)
(7.29385e-07 -6.83866e-07 -2.52188e-05)
(9.81529e-07 -9.32968e-07 -2.50673e-05)
(1.84095e-07 -1.78701e-06 -2.2973e-05)
(-2.62784e-07 -1.09919e-06 -2.52109e-05)
(2.79816e-07 -7.88813e-07 -2.54128e-05)
(-1.66099e-07 -8.89853e-07 -2.53301e-05)
(-1.72783e-07 -9.80029e-07 -2.51414e-05)
(1.64534e-07 -1.10439e-06 -2.51191e-05)
(2.88411e-07 -1.35779e-06 -2.51648e-05)
(-2.42348e-07 -2.10409e-06 -2.36669e-05)
(-4.58294e-08 -1.32072e-06 -2.51472e-05)
(-3.55324e-07 -1.86621e-06 -2.31123e-05)
(-1.0887e-06 -1.1777e-06 -2.4881e-05)
(-6.80414e-07 -8.95326e-07 -2.52387e-05)
(-1.27168e-06 -7.6542e-07 -2.50666e-05)
(-2.26228e-06 -7.5756e-07 -2.53204e-05)
(-3.00203e-06 -7.56364e-07 -2.56952e-05)
(-5.43567e-06 -1.13828e-06 -2.47718e-05)
(-1.01274e-05 -8.23211e-07 -2.5235e-05)
(-1.80746e-05 -8.78447e-07 -2.58536e-05)
(-2.78994e-05 -9.68324e-08 -2.87851e-05)
(-4.64577e-05 2.00352e-07 -1.29972e-05)
(1.72257e-05 -1.85078e-06 -1.98504e-05)
(1.77846e-05 -2.40931e-06 -2.60126e-05)
(1.47184e-05 -1.99832e-06 -2.54021e-05)
(9.11608e-06 -3.46853e-06 -2.50482e-05)
(4.98285e-06 -2.60302e-06 -2.42664e-05)
(3.29283e-06 -1.79308e-06 -2.53327e-05)
(2.17342e-06 -8.89634e-07 -2.55619e-05)
(9.47781e-07 -1.86691e-06 -2.52893e-05)
(6.4827e-07 -2.27665e-06 -2.51782e-05)
(8.26812e-07 -2.77427e-06 -2.51389e-05)
(1.83376e-07 -4.99346e-06 -2.39103e-05)
(-5.9931e-08 -3.18485e-06 -2.53113e-05)
(2.98354e-07 -2.69692e-06 -2.52327e-05)
(-1.89239e-07 -2.82423e-06 -2.53036e-05)
(-1.80174e-07 -2.86071e-06 -2.5185e-05)
(9.81283e-08 -2.96699e-06 -2.5166e-05)
(1.35367e-07 -3.30157e-06 -2.51761e-05)
(-2.25792e-07 -4.66531e-06 -2.51623e-05)
(-1.46159e-08 -3.32794e-06 -2.5303e-05)
(-3.29731e-07 -5.08856e-06 -2.39669e-05)
(-9.06785e-07 -3.2754e-06 -2.50262e-05)
(-6.08149e-07 -2.58676e-06 -2.5188e-05)
(-1.25781e-06 -2.27853e-06 -2.50818e-05)
(-2.25312e-06 -2.20797e-06 -2.52536e-05)
(-3.06886e-06 -2.05708e-06 -2.56065e-05)
(-5.45108e-06 -2.81625e-06 -2.4866e-05)
(-1.00002e-05 -2.65504e-06 -2.48682e-05)
(-1.7923e-05 -1.88033e-06 -2.59948e-05)
(-2.79167e-05 -1.37977e-06 -2.86678e-05)
(-4.66609e-05 -7.48985e-07 -1.22395e-05)
(1.7584e-05 -2.87135e-06 -1.93034e-05)
(1.79335e-05 -3.87612e-06 -2.58975e-05)
(1.46602e-05 -2.9741e-06 -2.5205e-05)
(8.99588e-06 -4.11263e-06 -2.61512e-05)
(5.14517e-06 -4.52249e-06 -2.49719e-05)
(3.53175e-06 -3.26896e-06 -2.51949e-05)
(2.20197e-06 -2.14995e-06 -2.51259e-05)
(8.52336e-07 -3.37259e-06 -2.52572e-05)
(5.41186e-07 -3.82516e-06 -2.50886e-05)
(5.72074e-07 -4.43805e-06 -2.51738e-05)
(1.82806e-07 -6.98596e-06 -2.54787e-05)
(2.07123e-07 -5.04485e-06 -2.5432e-05)
(3.14282e-07 -4.314e-06 -2.57911e-05)
(-1.6346e-07 -4.58095e-06 -2.52428e-05)
(-1.66611e-07 -4.61002e-06 -2.53079e-05)
(3.36707e-08 -4.70723e-06 -2.52816e-05)
(-2.2358e-09 -5.01528e-06 -2.52063e-05)
(-2.16009e-07 -5.7727e-06 -2.63373e-05)
(-9.26461e-08 -5.09505e-06 -2.53973e-05)
(-3.06729e-07 -7.13362e-06 -2.5481e-05)
(-6.06638e-07 -5.13621e-06 -2.51855e-05)
(-5.07579e-07 -4.24808e-06 -2.50915e-05)
(-1.22919e-06 -3.82598e-06 -2.50971e-05)
(-2.2164e-06 -3.63247e-06 -2.51115e-05)
(-3.12182e-06 -3.29362e-06 -2.52081e-05)
(-5.5668e-06 -4.67606e-06 -2.42236e-05)
(-9.85408e-06 -4.47128e-06 -2.51352e-05)
(-1.7636e-05 -2.66457e-06 -2.59228e-05)
(-2.79895e-05 -2.54858e-06 -2.84823e-05)
(-4.70223e-05 -2.05923e-06 -1.17073e-05)
(1.78752e-05 -4.14687e-06 -1.82799e-05)
(1.81747e-05 -5.3849e-06 -2.57067e-05)
(1.47459e-05 -4.10715e-06 -2.43997e-05)
(8.83486e-06 -4.09909e-06 -2.60527e-05)
(5.18314e-06 -5.44087e-06 -2.55365e-05)
(3.80372e-06 -4.60759e-06 -2.49916e-05)
(2.2125e-06 -3.63819e-06 -2.4043e-05)
(7.19146e-07 -4.94958e-06 -2.51243e-05)
(4.52297e-07 -5.26573e-06 -2.49791e-05)
(3.64239e-07 -5.90675e-06 -2.51306e-05)
(1.8136e-07 -7.7682e-06 -2.63013e-05)
(4.89491e-07 -6.66092e-06 -2.54109e-05)
(3.33897e-07 -5.17203e-06 -2.55986e-05)
(-1.9563e-07 -6.16007e-06 -2.51346e-05)
(-1.45831e-07 -6.07648e-06 -2.55341e-05)
(-2.24791e-08 -6.18593e-06 -2.54983e-05)
(-4.97689e-08 -6.56196e-06 -2.51726e-05)
(-2.14733e-07 -6.27982e-06 -2.64194e-05)
(-2.19193e-07 -6.66131e-06 -2.5344e-05)
(-2.95788e-07 -7.97716e-06 -2.62843e-05)
(-3.69916e-07 -6.73229e-06 -2.52619e-05)
(-4.20301e-07 -5.81645e-06 -2.49773e-05)
(-1.18785e-06 -5.39691e-06 -2.50434e-05)
(-2.142e-06 -4.99833e-06 -2.4892e-05)
(-3.26326e-06 -4.74921e-06 -2.44244e-05)
(-5.6906e-06 -7.09346e-06 -2.41918e-05)
(-9.54435e-06 -5.81709e-06 -2.50312e-05)
(-1.73427e-05 -3.67951e-06 -2.48057e-05)
(-2.79618e-05 -3.67811e-06 -2.82123e-05)
(-4.66688e-05 -3.71542e-06 -1.07922e-05)
(1.85112e-05 -5.9643e-06 -1.72834e-05)
(1.85442e-05 -6.92621e-06 -2.55372e-05)
(1.49764e-05 -5.92767e-06 -2.35215e-05)
(8.75421e-06 -4.33101e-06 -2.47043e-05)
(5.09555e-06 -5.86634e-06 -2.54505e-05)
(3.93177e-06 -5.78538e-06 -2.46679e-05)
(2.16971e-06 -5.76148e-06 -2.31689e-05)
(6.50631e-07 -6.45185e-06 -2.48868e-05)
(4.26338e-07 -6.50026e-06 -2.48081e-05)
(2.39614e-07 -7.19186e-06 -2.49892e-05)
(1.71217e-07 -8.18389e-06 -2.62015e-05)
(7.41953e-07 -8.1574e-06 -2.51757e-05)
(3.52779e-07 -6.56499e-06 -2.42642e-05)
(-2.78271e-07 -7.64424e-06 -2.49462e-05)
(-1.03129e-07 -7.09584e-06 -2.56914e-05)
(-9.38388e-08 -7.23804e-06 -2.56551e-05)
(-2.05387e-08 -8.02539e-06 -2.5037e-05)
(-2.13108e-07 -7.01568e-06 -2.54187e-05)
(-3.61567e-07 -8.12863e-06 -2.51283e-05)
(-3.01804e-07 -8.45067e-06 -2.61886e-05)
(-2.55627e-07 -8.08489e-06 -2.52074e-05)
(-3.87443e-07 -7.19929e-06 -2.48163e-05)
(-1.14165e-06 -6.81755e-06 -2.4913e-05)
(-2.0609e-06 -6.24172e-06 -2.46072e-05)
(-3.50397e-06 -6.74177e-06 -2.37256e-05)
(-5.76789e-06 -8.71332e-06 -2.51332e-05)
(-9.18104e-06 -7.48181e-06 -2.45789e-05)
(-1.70663e-05 -5.52956e-06 -2.37559e-05)
(-2.77395e-05 -4.87822e-06 -2.78694e-05)
(-4.56568e-05 -5.90849e-06 -1.03844e-05)
(2.00666e-05 -7.59483e-06 -1.73227e-05)
(1.89364e-05 -8.28482e-06 -2.55612e-05)
(1.52941e-05 -7.61983e-06 -2.37091e-05)
(8.88841e-06 -5.63469e-06 -2.28538e-05)
(4.97569e-06 -6.15934e-06 -2.48501e-05)
(3.88205e-06 -6.74684e-06 -2.42804e-05)
(2.10235e-06 -7.92314e-06 -2.28416e-05)
(6.84995e-07 -7.67364e-06 -2.46275e-05)
(4.60789e-07 -7.44254e-06 -2.45432e-05)
(1.91571e-07 -8.31088e-06 -2.4771e-05)
(1.32328e-07 -8.63769e-06 -2.54271e-05)
(8.31817e-07 -9.59073e-06 -2.48621e-05)
(3.66464e-07 -8.86696e-06 -2.31288e-05)
(-2.6164e-07 -9.07012e-06 -2.47467e-05)
(8.85312e-09 -7.66326e-06 -2.5342e-05)
(-2.26562e-07 -7.8503e-06 -2.53162e-05)
(3.22999e-09 -9.46086e-06 -2.48407e-05)
(-2.02713e-07 -8.73491e-06 -2.39563e-05)
(-4.76109e-07 -9.58601e-06 -2.48436e-05)
(-3.2011e-07 -8.95527e-06 -2.54285e-05)
(-2.59752e-07 -9.19994e-06 -2.50141e-05)
(-3.94857e-07 -8.31442e-06 -2.4568e-05)
(-1.10654e-06 -7.90744e-06 -2.46925e-05)
(-2.09068e-06 -7.2065e-06 -2.43266e-05)
(-3.68684e-06 -8.3805e-06 -2.40566e-05)
(-5.80326e-06 -9.09167e-06 -2.54612e-05)
(-9.02296e-06 -8.89982e-06 -2.48034e-05)
(-1.67962e-05 -7.59269e-06 -2.3346e-05)
(-2.72186e-05 -5.9835e-06 -2.75398e-05)
(-4.45331e-05 -7.98413e-06 -1.04813e-05)
(2.20961e-05 -8.33084e-06 -1.734e-05)
(1.92627e-05 -9.20841e-06 -2.56429e-05)
(1.55027e-05 -8.27953e-06 -2.39464e-05)
(9.1395e-06 -7.53602e-06 -2.21867e-05)
(5.00298e-06 -6.36505e-06 -2.38938e-05)
(3.68557e-06 -7.37526e-06 -2.38156e-05)
(2.04974e-06 -9.52359e-06 -2.31512e-05)
(8.34731e-07 -8.4761e-06 -2.44287e-05)
(5.37055e-07 -8.0358e-06 -2.41263e-05)
(1.95926e-07 -9.26403e-06 -2.45304e-05)
(5.85704e-08 -9.42314e-06 -2.4131e-05)
(7.22212e-07 -1.08512e-05 -2.45123e-05)
(3.6973e-07 -1.13176e-05 -2.27191e-05)
(-7.49495e-08 -1.0344e-05 -2.45949e-05)
(2.16239e-07 -8.23933e-06 -2.40508e-05)
(-4.47539e-07 -8.48212e-06 -2.40385e-05)
(-1.20496e-07 -1.08153e-05 -2.46657e-05)
(-1.79773e-07 -1.09891e-05 -2.34523e-05)
(-4.59785e-07 -1.10111e-05 -2.46309e-05)
(-3.38405e-07 -9.79104e-06 -2.41443e-05)
(-3.49678e-07 -1.00661e-05 -2.46181e-05)
(-4.24904e-07 -9.12397e-06 -2.41623e-05)
(-1.08556e-06 -8.6276e-06 -2.44436e-05)
(-2.15699e-06 -7.7412e-06 -2.39504e-05)
(-3.75924e-06 -8.90652e-06 -2.42026e-05)
(-5.80308e-06 -9.25996e-06 -2.45461e-05)
(-9.15601e-06 -9.52965e-06 -2.45277e-05)
(-1.66401e-05 -9.17022e-06 -2.36502e-05)
(-2.64274e-05 -6.63572e-06 -2.73354e-05)
(-4.37166e-05 -9.48921e-06 -1.10172e-05)
(2.40034e-05 -8.5166e-06 -1.68407e-05)
(1.9512e-05 -9.65061e-06 -2.56716e-05)
(1.55381e-05 -8.25648e-06 -2.37437e-05)
(9.40693e-06 -8.40808e-06 -2.26992e-05)
(5.18708e-06 -6.63112e-06 -2.26458e-05)
(3.42558e-06 -7.62905e-06 -2.32623e-05)
(2.05542e-06 -9.81496e-06 -2.38302e-05)
(1.07436e-06 -8.723e-06 -2.42808e-05)
(6.29221e-07 -8.28507e-06 -2.35605e-05)
(1.93904e-07 -1.00042e-05 -2.4343e-05)
(-3.39002e-08 -1.09064e-05 -2.28762e-05)
(4.86884e-07 -1.18675e-05 -2.39696e-05)
(3.62589e-07 -1.32287e-05 -2.30499e-05)
(2.30558e-07 -1.12833e-05 -2.45165e-05)
(4.44985e-07 -9.70741e-06 -2.22635e-05)
(-6.83036e-07 -1.002e-05 -2.22709e-05)
(-3.19048e-07 -1.1931e-05 -2.45491e-05)
(-1.4957e-07 -1.24609e-05 -2.35237e-05)
(-3.89458e-07 -1.22752e-05 -2.45488e-05)
(-3.5146e-07 -1.13322e-05 -2.29041e-05)
(-4.51485e-07 -1.07605e-05 -2.38909e-05)
(-4.65133e-07 -9.67198e-06 -2.3592e-05)
(-1.0791e-06 -8.91739e-06 -2.42148e-05)
(-2.23831e-06 -7.85845e-06 -2.34174e-05)
(-3.79218e-06 -8.90904e-06 -2.37399e-05)
(-5.78548e-06 -1.01718e-05 -2.31738e-05)
(-9.44748e-06 -1.02977e-05 -2.35712e-05)
(-1.65697e-05 -9.52091e-06 -2.43263e-05)
(-2.54663e-05 -6.5327e-06 -2.72421e-05)
(-4.30037e-05 -9.86707e-06 -1.17897e-05)
(2.52374e-05 -8.50363e-06 -1.61129e-05)
(1.97379e-05 -9.67931e-06 -2.56574e-05)
(1.54585e-05 -7.91614e-06 -2.33565e-05)
(9.58006e-06 -7.95285e-06 -2.30919e-05)
(5.38016e-06 -7.30812e-06 -2.17954e-05)
(3.2945e-06 -7.59621e-06 -2.28354e-05)
(2.18086e-06 -8.90462e-06 -2.39389e-05)
(1.30594e-06 -8.31279e-06 -2.41716e-05)
(7.08819e-07 -8.22542e-06 -2.30643e-05)
(1.03132e-07 -1.03643e-05 -2.42587e-05)
(-1.28221e-07 -1.23055e-05 -2.27862e-05)
(2.93827e-07 -1.29168e-05 -2.31398e-05)
(3.71167e-07 -1.38898e-05 -2.37938e-05)
(4.61546e-07 -1.1692e-05 -2.45174e-05)
(4.94283e-07 -1.17344e-05 -2.17708e-05)
(-7.32499e-07 -1.21243e-05 -2.18086e-05)
(-3.41065e-07 -1.26467e-05 -2.45278e-05)
(-1.27026e-07 -1.35296e-05 -2.29916e-05)
(-4.60345e-07 -1.3206e-05 -2.45586e-05)
(-3.83256e-07 -1.27889e-05 -2.28397e-05)
(-4.71479e-07 -1.16176e-05 -2.28995e-05)
(-4.88667e-07 -1.00518e-05 -2.3096e-05)
(-1.09383e-06 -8.64975e-06 -2.40886e-05)
(-2.38814e-06 -7.65136e-06 -2.29499e-05)
(-3.9001e-06 -8.81253e-06 -2.31702e-05)
(-5.7839e-06 -1.12004e-05 -2.28805e-05)
(-9.6109e-06 -1.11451e-05 -2.29552e-05)
(-1.64298e-05 -8.78812e-06 -2.44119e-05)
(-2.44727e-05 -5.58509e-06 -2.70702e-05)
(-4.14282e-05 -9.07938e-06 -1.22512e-05)
(2.57471e-05 -8.38967e-06 -1.61068e-05)
(1.98777e-05 -9.30033e-06 -2.57821e-05)
(1.52205e-05 -7.36796e-06 -2.35974e-05)
(9.56511e-06 -6.92251e-06 -2.37349e-05)
(5.52329e-06 -7.56134e-06 -2.29029e-05)
(3.41255e-06 -7.26174e-06 -2.33139e-05)
(2.5148e-06 -7.62861e-06 -2.40811e-05)
(1.51461e-06 -7.1053e-06 -2.42844e-05)
(7.77533e-07 -7.77554e-06 -2.32729e-05)
(4.54054e-08 -1.00101e-05 -2.43764e-05)
(-2.75585e-07 -1.2994e-05 -2.31644e-05)
(1.99499e-07 -1.4499e-05 -2.28985e-05)
(4.72199e-07 -1.36783e-05 -2.41003e-05)
(4.93358e-07 -1.13059e-05 -2.47847e-05)
(3.22011e-07 -1.2824e-05 -2.2844e-05)