/*--------------------------------*- C++ -*----------------------------------*\
| =========                 |                                                 |
| \\      /  F ield         | OpenFOAM: The Open Source CFD Toolbox           |
|  \\    /   O peration     | Version:  2106                                  |
|   \\  /    A nd           | Website:  www.openfoam.com                      |
|    \\/     M anipulation  |                                                 |
\*---------------------------------------------------------------------------*/
FoamFile
{
    version     2.0;
    format      ascii;
    arch        "LSB;label=32;scalar=64";
    class       volSymmTensorField;
    location    "226";
    object      epsilon;
}
// * * * * * * * * * * * * * * * * * * * * * * * * * * * * * * * * * * * * * //

dimensions      [0 0 0 0 0 0 0];

internalField   nonuniform List<symmTensor> 
9000
(
(0.05046 0.00222812 0.0741722 0.0982615 -0.0154984 -0.865966)
(0.00258774 -0.000851271 0.163295 0.273584 -0.0400654 -1.2683)
(-0.00726301 -0.00332887 0.16991 0.183372 -0.0405547 -1.03691)
(-0.0159 0.00161066 0.124915 0.00744833 -0.0414119 -0.542234)
(-0.0153158 0.000504202 0.0687055 0.0112171 0.0146631 -0.578237)
(-0.0124509 -7.05697e-05 0.027025 -0.028539 -0.0123863 -0.456099)
(-0.00580937 0.00351383 -0.0141451 0.0361854 0.00910547 -0.645862)
(0.00277921 -7.22286e-05 -0.0123366 0.215567 -0.0173628 -1.1178)
(0.00346969 0.000305354 0.00862395 0.0401041 -0.0462708 -0.636628)
(0.00674076 0.00177994 0.0153453 0.222624 -0.015337 -1.13721)
(-0.00119359 -0.00339309 0.0582103 0.102357 0.0194812 -0.841549)
(-0.011988 -0.000222489 0.00661207 -0.0267524 0.012381 -0.456018)
(-0.00195816 0.00176705 -0.0302416 0.0838334 0.0176685 -0.792713)
(0.0027371 0.000670967 -0.00542559 0.0944047 -0.033133 -0.766235)
(0.00126183 0.000642619 -0.00526722 0.108648 0.0210049 -0.862937)
(-0.000825348 -0.00060134 0.000515773 0.108988 0.0202676 -0.862106)
(-0.0031852 -0.000413336 -0.013822 0.105522 -0.0397762 -0.789025)
(0.00478045 0.0017311 -0.018853 0.166747 -0.00458453 -1.001)
(0.0102109 -0.000645842 0.0202403 0.236464 -0.00891012 -1.17575)
(-0.00147381 -0.00400467 0.0535878 0.101785 0.0192588 -0.839983)
(-0.0146105 -0.00288037 0.00900801 -0.0365025 0.00375268 -0.428099)
(-0.00636167 0.00143009 -0.050513 0.00256633 -0.0302301 -0.535343)
(0.00284536 -0.000147903 -0.0320362 0.232731 -0.0330923 -1.16083)
(-0.00159039 -0.00204701 -0.0234669 0.0408761 -0.0529575 -0.636309)
(0.000557738 0.00218134 -0.0402015 0.150045 -0.0223439 -0.963367)
(-0.00528616 -0.000297447 -0.0193786 0.126763 -0.00189935 -0.90374)
(-0.0212421 -0.000851701 -0.0703122 0.00216403 -0.0113556 -0.530937)
(-0.0235995 0.000114556 -0.15533 0.0429448 -0.00550761 -0.646297)
(-0.0278455 0.00220252 -0.211516 0.0905693 -0.0397204 -0.733909)
(-0.0558225 0.00478511 -0.152904 -0.0594243 0.0272872 -0.342533)
(0.0392624 0.00932577 0.0958764 0.0789534 -0.0379047 -0.815264)
(-0.00563484 0.000343292 0.17335 0.165694 -0.0246453 -0.940569)
(-0.0114031 -0.0132904 0.142412 0.130463 -0.080414 -0.957951)
(-0.0140221 -0.0011319 0.102893 0.0554373 -0.102552 -0.713728)
(-0.0120742 0.00036321 0.0587315 0.0300487 0.0122095 -0.704336)
(-0.00788067 0.000426683 0.0302464 0.0305253 -0.0461203 -0.671406)
(-0.00414689 0.0128887 0.0145727 0.0501557 0.00708447 -0.746502)
(-0.000419573 -0.000550969 0.00547463 0.132659 0.0137676 -0.857762)
(0.000317427 0.00111776 0.00911056 0.0772649 -0.10301 -0.754373)
(0.00246071 0.00606927 0.00559036 0.138121 0.0216985 -0.875581)
(-0.000230145 -0.0125434 0.0217992 0.0785314 0.026054 -0.856135)
(-0.00480901 -0.00122288 0.00544875 0.029422 0.0171079 -0.668725)
(-0.00138945 0.00531599 -0.00276644 0.0689624 0.0182749 -0.82206)
(-0.00112218 0.00242597 -0.00264913 0.0921622 -0.025648 -0.685795)
(0.00213802 0.00326603 -0.0157707 0.0769838 0.0294948 -0.861492)
(0.00117777 -0.00291944 0.0140299 0.0769692 0.0277392 -0.860364)
(-0.00374809 0.00104381 -0.00465585 0.0986155 -0.0381112 -0.696951)
(0.00200288 0.0078579 -0.0135132 0.117405 -0.000759989 -0.948311)
(0.00550845 -0.00359256 0.00691656 0.145446 0.0393437 -0.907871)
(-0.000105994 -0.015181 0.0188865 0.0781634 0.0252895 -0.855125)
(-0.00670186 -0.0093407 0.00717924 0.0248972 -0.00423837 -0.644056)
(-0.00489502 0.00862751 -0.0171707 0.0524958 -0.076501 -0.702578)
(-0.00248973 0.000545292 -0.0225374 0.14409 -0.0165938 -0.868963)
(-0.00299001 -0.00498793 -0.0381613 0.0775526 -0.118863 -0.758101)
(0.000129912 0.00744507 -0.0422424 0.108979 -0.0495139 -0.934879)
(-0.00608009 -0.00445006 -0.0339218 0.0934016 -0.0175553 -0.891399)
(-0.018152 -0.00472736 -0.077329 0.048385 -0.0448823 -0.704416)
(-0.0238703 0.00063077 -0.141864 0.0548484 -0.0228998 -0.7355)
(-0.0326041 0.00222616 -0.221223 0.0855138 -0.0427963 -0.662362)
(-0.0362947 0.00286231 -0.173201 -0.00726858 0.0318216 -0.487211)
(0.00405448 0.00875698 0.106236 0.0687923 0.00261747 -0.670221)
(-0.0117497 1.90059e-05 0.179433 0.0880133 0.00508931 -0.71763)
(-0.0142027 -0.00759173 0.130685 0.101494 -0.0319417 -0.80252)
(-0.0131395 -0.000441486 0.0898248 0.0915599 -0.0418244 -0.718611)
(-0.00996172 0.000999923 0.0528207 0.0506199 0.0526894 -0.676045)
(-0.00498446 0.000485681 0.0309269 0.0732634 0.0156135 -0.697136)
(-0.00275345 0.00692904 0.0270305 0.0631772 0.0563826 -0.712349)
(-0.00221692 -0.00168325 0.0154528 0.0730035 0.0449985 -0.674741)
(-0.00185496 0.0014247 0.0102467 0.100333 -0.0408027 -0.724754)
(-0.000447991 0.00717354 0.00249811 0.0748188 0.0555996 -0.685784)
(0.000224436 -0.00610195 0.00325245 0.0705211 0.0814882 -0.761078)
(-0.000419743 -0.00145821 0.00416297 0.0608796 0.0813043 -0.689088)
(-0.000726463 -0.000501951 0.00768433 0.0688689 0.0730287 -0.743665)
(-0.00248425 0.00206982 0.000577982 0.0794473 0.0201945 -0.619265)
(0.00172709 0.00706201 -0.0118613 0.0651604 0.076227 -0.742664)
(0.00172841 -0.00693947 0.0121394 0.0651088 0.0741479 -0.742422)
(-0.00306122 0.000724518 0.00074675 0.0827471 0.00701063 -0.624903)
(-0.000245441 0.00780275 -0.00741479 0.0820369 0.048246 -0.770144)
(0.00201861 -0.00259732 -0.00260952 0.0753423 0.0753721 -0.704832)
(0.000755809 -0.00966886 5.6206e-05 0.070469 0.0806372 -0.76118)
(-0.00177062 -0.00966588 0.00243154 0.0617279 0.0580984 -0.6748)
(-0.00343453 0.00195658 -0.00290114 0.0862389 -0.0146127 -0.703778)
(-0.00498133 -1.67828e-05 -0.0168141 0.0814283 0.0132472 -0.675602)
(-0.0037498 0.00041828 -0.0392156 0.102322 -0.057469 -0.733288)
(-0.000902858 0.00813426 -0.0401232 0.0896552 0.000165358 -0.80377)
(-0.00733184 -0.00256349 -0.0430338 0.0820924 0.0368087 -0.784479)
(-0.0169745 -0.00590284 -0.0852781 0.0803531 0.0249982 -0.707837)
(-0.023362 -0.0056839 -0.144 0.0682089 0.0247086 -0.703401)
(-0.0342391 0.00243132 -0.225182 0.074719 -0.00223312 -0.612249)
(-0.0464483 0.00208149 -0.175789 0.0315841 0.0732915 -0.48797)
(-0.031072 0.00649056 0.110648 0.0444274 0.0388582 -0.508929)
(-0.0154306 -0.000860798 0.180522 0.0486182 0.030295 -0.589341)
(-0.0157576 -0.00123373 0.129771 0.0644541 0.0154653 -0.635955)
(-0.0133107 0.00133771 0.0824165 0.073695 0.0231544 -0.624268)
(-0.00869658 0.00154935 0.0493031 0.041385 0.0897867 -0.60255)
(-0.00385835 0.00031304 0.0311053 0.0575886 0.073041 -0.613815)
(-0.00196832 0.000492993 0.0282367 0.0437391 0.0954614 -0.61303)
(-0.00258519 -0.00309793 0.0198826 0.041915 0.0692205 -0.569644)
(-0.00289233 0.00117793 0.0110653 0.075332 0.0237018 -0.616712)
(-0.0015848 0.00711771 0.00186573 0.0402216 0.0783628 -0.572699)
(0.000279397 0.000585817 -0.0008962 0.0374254 0.118794 -0.619447)
(0.000803255 -0.00122395 0.00312083 0.0366938 0.123651 -0.584547)
(-0.000259234 -0.0046907 0.00685393 0.0402488 0.112442 -0.614127)
(-0.00179832 0.0010753 0.00227021 0.0575632 0.064542 -0.565639)
(0.00076012 0.00791373 -0.00429143 0.0380737 0.11078 -0.614594)
(0.00126862 -0.00817219 0.00590192 0.0381482 0.108731 -0.615166)
(-0.00185087 -0.000932806 0.00356902 0.0597966 0.0522335 -0.568655)
(-0.00150783 0.00563905 -0.00367882 0.0446371 0.0798294 -0.601235)
(0.000398753 0.000227631 -0.00753054 0.0367039 0.0956039 -0.582802)
(0.00104681 -0.00295579 -0.00473711 0.0375451 0.118078 -0.620362)
(-0.000171978 -0.00803702 -0.00107387 0.0406201 0.103263 -0.577343)
(-0.00231703 -0.00382262 -0.0017887 0.0657201 0.0462701 -0.610023)
(-0.00482135 -0.000738991 -0.0134356 0.0497422 0.0414174 -0.568614)
(-0.00402391 0.0041426 -0.0330793 0.0779465 0.00882256 -0.623703)
(-0.00229909 0.00734285 -0.0376838 0.0560357 0.0444605 -0.645073)
(-0.00868122 -0.000129698 -0.0470721 0.0474819 0.0799029 -0.631361)
(-0.0174595 -0.00528501 -0.0921081 0.0506002 0.0796376 -0.581122)
(-0.0225756 -0.00867313 -0.153974 0.0491692 0.0675042 -0.607912)
(-0.0349187 0.00194875 -0.225452 0.0567327 0.0402935 -0.571532)
(-0.0661757 -0.000306118 -0.178973 0.0306006 0.106457 -0.410089)
(-0.053935 0.00390052 0.115563 0.0215875 0.0538177 -0.398964)
(-0.0176087 -0.00143515 0.179339 0.0278065 0.04785 -0.527052)
(-0.0163299 0.0016172 0.132184 0.0341501 0.0401864 -0.524979)
(-0.0138536 0.00340984 0.0791334 0.0438587 0.0585009 -0.53684)
(-0.00817814 0.00170265 0.0471996 0.0211075 0.110467 -0.530148)
(-0.00367222 -0.000320727 0.0306258 0.0276976 0.0991272 -0.529627)
(-0.00165481 -0.00213429 0.0255002 0.0209867 0.111309 -0.534471)
(-0.00231371 -0.00413694 0.0208353 0.0234976 0.0859203 -0.51685)
(-0.00306272 0.00071309 0.0114261 0.0415473 0.0582543 -0.526507)
(-0.00177895 0.00596661 0.00253665 0.0198615 0.0929748 -0.515457)
(9.62669e-05 0.00293137 7.51363e-05 0.00732073 0.1239 -0.505774)
(0.000593889 -0.000766745 0.00238837 0.00461375 0.133754 -0.504055)
(4.76461e-05 -0.00479397 0.00340847 0.0126311 0.120345 -0.509563)
(-0.000527595 0.000693467 0.00313429 0.0338903 0.0929749 -0.528187)
(-0.000220283 0.00599719 0.00218625 0.0109775 0.121102 -0.507415)
(0.000381775 -0.00661296 0.000172544 0.011207 0.119173 -0.508316)
(-0.000724034 -0.00178462 0.0034948 0.0357662 0.0819739 -0.529574)
(-0.00181277 0.00355779 -0.0019175 0.0183179 0.0956027 -0.51261)
(-0.000147609 0.00140921 -0.00844082 0.0151797 0.106754 -0.521311)
(0.000885312 -0.000184899 -0.00429724 0.00749668 0.123304 -0.506974)
(-0.000133534 -0.00575407 -0.00352067 0.00898885 0.116965 -0.499602)
(-0.00155511 -0.0050724 -0.00454109 0.0334514 0.0759906 -0.524119)
(-0.00371681 -0.0012246 -0.0115953 0.0304124 0.0630541 -0.515839)
(-0.00398387 0.00419638 -0.0263878 0.0439646 0.0448556 -0.529401)
(-0.00358636 0.00559947 -0.0352094 0.0264824 0.0645526 -0.53341)
(-0.00981354 0.000494171 -0.0485743 0.0158919 0.0904019 -0.508219)
(-0.0183033 -0.00297865 -0.096693 0.0128141 0.093108 -0.474502)
(-0.0221028 -0.00634188 -0.162659 0.0257301 0.0870925 -0.531447)
(-0.0362309 0.000655315 -0.225975 0.0373057 0.0697189 -0.543298)
(-0.0818724 -0.00263166 -0.185034 0.0181521 0.120929 -0.340462)
(-0.063206 0.000855262 0.116611 0.00931264 0.058238 -0.352325)
(-0.0183317 -0.00152784 0.177352 0.0164458 0.0597546 -0.502269)
(-0.0162661 0.00229156 0.134222 0.0182537 0.0520755 -0.476824)
(-0.0143545 0.00430822 0.0789582 0.0241637 0.0754208 -0.49188)
(-0.00819898 0.00131468 0.0458705 -0.00226021 0.115625 -0.471214)
(-0.00375976 -0.000171838 0.0292729 0.00693644 0.105142 -0.483221)
(-0.00161821 -0.00212197 0.0228307 0.00967296 0.116183 -0.500997)
(-0.00196933 -0.00482067 0.0198654 0.0111904 0.0959031 -0.494101)
(-0.00282341 0.000163157 0.0115118 0.0188099 0.0725352 -0.481721)
(-0.00165896 0.00487136 0.00303143 0.00601186 0.100379 -0.490516)
(-8.08986e-05 0.00225659 0.00154203 -0.00328131 0.120612 -0.478777)
(0.000109491 -0.000112217 0.00195699 -0.0127334 0.122478 -0.452628)
(0.000243794 -0.00260046 0.000802457 0.00463709 0.120656 -0.491273)
(0.000427803 7.17279e-06 0.00400402 0.0144638 0.106717 -0.506465)
(-0.00089256 0.00326828 0.00574285 -0.00879915 0.120674 -0.462834)
(-0.000254403 -0.00416481 -0.00311514 -0.00838366 0.118987 -0.464084)
(1.03854e-05 -0.00199573 0.00312234 0.0160275 0.0968139 -0.506715)
(-0.00186904 0.00211515 -0.0010359 -0.000424575 0.0983082 -0.452512)
(-0.000299721 0.00196913 -0.00893658 0.00152201 0.111225 -0.494906)
(0.000751052 -0.000417442 -0.00324958 -0.00304637 0.120176 -0.48028)
(-0.000455514 -0.00420129 -0.00444394 -0.00919869 0.108199 -0.448106)
(-0.00114894 -0.00338994 -0.00701743 0.0119212 0.0851644 -0.479926)
(-0.00271701 -0.00138801 -0.0107184 0.0167075 0.077147 -0.492804)
(-0.00388097 0.00256457 -0.0219589 0.0213315 0.0602488 -0.481495)
(-0.00454711 0.00420729 -0.0338699 0.0108896 0.0713661 -0.482735)
(-0.0103848 8.56368e-05 -0.0497781 0.00510152 0.0915815 -0.477615)
(-0.018716 -0.000569281 -0.0979812 -0.00204943 0.0864709 -0.438569)
(-0.0223507 -0.00216926 -0.166524 0.013713 0.0946917 -0.498936)
(-0.038412 -0.00102246 -0.228487 0.0212743 0.0869798 -0.527446)
(-0.0902213 -0.00325187 -0.193733 0.00987162 0.12634 -0.306478)
(-0.0628267 -0.00253051 0.116015 0.0050795 0.0602523 -0.34909)
(-0.0176984 -0.0012732 0.175378 0.00954965 0.0674692 -0.496377)
(-0.0159778 0.00238562 0.135799 0.0116619 0.0606237 -0.467575)
(-0.0147831 0.00293628 0.0797895 0.0116364 0.086775 -0.474586)
(-0.00829359 0.000476357 0.0446128 -0.0175212 0.102851 -0.431257)
(-0.00379053 0.00198373 0.028405 -0.00365008 0.103473 -0.46854)
(-0.00187856 -0.00122814 0.0213195 0.00474094 0.121306 -0.494464)
(-0.00179297 -0.00548459 0.0177572 0.00204025 0.100181 -0.486234)
(-0.00228845 -0.000551779 0.0112393 0.00660059 0.0781169 -0.470331)
(-0.00157124 0.00442969 0.0042482 -0.00408494 0.100361 -0.481202)
(-0.000270145 0.00116981 0.00134136 -0.0123641 0.120865 -0.463103)
(-5.65853e-06 0.000849475 0.00196701 -0.0141601 0.109853 -0.464071)
(0.000228363 -0.000476479 0.000690165 -0.00178018 0.127129 -0.483345)
(0.00081317 -0.00224629 0.00417869 0.000189104 0.110142 -0.495385)
(-0.00119514 0.000385774 0.00749273 -0.0244798 0.108635 -0.423613)
(-0.000723612 -0.0014571 -0.00498517 -0.0240149 0.107321 -0.424676)
(0.000415649 -0.0016591 0.00168067 0.00188294 0.101016 -0.495378)
(-0.00154104 0.00108534 -0.000561719 -0.00752655 0.0919502 -0.444318)
(-0.00046476 0.00316294 -0.00778407 -0.00804488 0.108916 -0.484912)
(0.000381469 -0.00115422 -0.00390951 -0.0121734 0.120653 -0.464364)
(-0.000443285 -0.00371268 -0.00566575 -0.0108914 0.0969369 -0.460256)
(-0.000851929 -0.00128461 -0.00712691 0.00150973 0.0866101 -0.469163)
(-0.00224243 -0.00132385 -0.0103577 0.00639114 0.0842922 -0.484463)
(-0.00366911 0.00108316 -0.0197654 0.00952377 0.0673334 -0.468723)
(-0.00516298 0.00379473 -0.0322172 0.00500016 0.0750878 -0.47196)
(-0.0106712 1.72875e-05 -0.0510711 -0.00285002 0.096753 -0.463499)
(-0.0186431 0.00111526 -0.0976746 -0.00381112 0.0839618 -0.453087)
(-0.0232217 0.000638604 -0.166427 0.00855514 0.102076 -0.493148)
(-0.0406736 -0.00261666 -0.23361 0.00818642 0.0958271 -0.519609)
(-0.0931051 -0.00151976 -0.202213 0.00354407 0.131227 -0.294358)
(-0.0578175 -0.00590847 0.110167 0.00256387 0.0640403 -0.36053)
(-0.0155218 -0.00109672 0.174189 0.00334346 0.0727003 -0.496564)
(-0.0158506 0.00206978 0.137159 0.00681861 0.0684419 -0.471329)
(-0.0151983 0.000815094 0.0788361 -0.00484778 0.0927644 -0.455689)
(-0.00788805 -0.00011613 0.042891 -0.0170441 0.0873007 -0.451819)
(-0.00366744 0.00446743 0.0304522 -0.00950789 0.0992019 -0.469316)
(-0.00261709 -0.000402122 0.0208181 -0.00586854 0.126104 -0.482896)
(-0.00184458 -0.00595718 0.0147034 -0.00583297 0.0994211 -0.483907)
(-0.00158107 -0.00124995 0.0101276 -0.00056705 0.0798081 -0.473886)
(-0.00138913 0.00291788 0.00600139 -0.010639 0.0948328 -0.479744)
(-0.000380327 0.00108006 0.00128371 -0.0270895 0.108414 -0.432005)
(9.64355e-06 0.00204659 0.00279348 -0.0130485 0.104071 -0.47751)
(-0.000221385 0.000200629 0.00139163 -0.0180068 0.124123 -0.450829)
(0.000684151 -0.00451422 0.00177487 -0.0101436 0.106206 -0.489395)
(-0.000837508 -0.00254581 0.00657208 -0.0268761 0.0855408 -0.428791)
(-0.00071492 0.00145962 -0.00443158 -0.0265088 0.0844856 -0.429139)
(0.000393606 0.000405237 0.00103809 -0.00780085 0.0982179 -0.489883)
(-0.00115573 0.000346646 -0.000737792 -0.0100538 0.090318 -0.465467)
(-0.000548336 0.00232679 -0.00538159 -0.0144075 0.101483 -0.482132)
(-0.000133217 -0.00084139 -0.00453867 -0.0270478 0.108284 -0.432488)
(-0.000301283 -0.00219891 -0.00733082 -0.00863665 0.0928521 -0.476993)
(-0.000614825 -0.000374362 -0.00632777 -0.00387867 0.0857196 -0.473314)
(-0.0021041 -0.00117836 -0.0102614 -0.00164813 0.0856827 -0.482686)
(-0.00339462 0.000376681 -0.0188405 0.0023983 0.0709963 -0.471627)
(-0.00545575 0.00254942 -0.0300911 0.00172906 0.0787228 -0.47684)
(-0.0107226 -0.000177871 -0.0514926 -0.0157075 0.0905436 -0.437075)
(-0.01844 0.00326467 -0.096009 -0.00561208 0.081533 -0.453823)
(-0.0245741 0.00190287 -0.164946 -0.00204339 0.109071 -0.481957)
(-0.0419655 -0.00353096 -0.241057 -0.004228 0.0974791 -0.514611)
(-0.0942013 0.00111987 -0.205606 -0.00868245 0.133906 -0.277771)
(-0.0520217 -0.0077484 0.0991942 -0.00349055 0.0666929 -0.366748)
(-0.0121938 -0.00152691 0.173808 -0.00424708 0.0734141 -0.496491)
(-0.0157649 0.000578993 0.138016 -0.00165279 0.0733812 -0.470649)
(-0.0155013 -0.000123516 0.0769067 -0.0232883 0.0817767 -0.42443)
(-0.00721389 0.000771039 0.04117 -0.0119012 0.0799096 -0.475191)
(-0.00348765 0.00465073 0.033992 -0.0143013 0.0923881 -0.47328)
(-0.00359652 9.05818e-05 0.0208965 -0.0232319 0.118288 -0.449905)
(-0.00205279 -0.00525737 0.0111577 -0.0130346 0.0936529 -0.482675)
(-0.00100799 -0.00156736 0.00858953 -0.00631871 0.0782324 -0.480163)
(-0.00111089 0.000476232 0.00619644 -0.0143232 0.0867332 -0.481548)
(-0.000173584 0.00108299 0.00168129 -0.0285665 0.0831149 -0.442266)
(8.8638e-06 0.00273891 0.00471344 -0.0165757 0.0967456 -0.481243)
(-0.00093166 0.000207907 0.00195992 -0.0318426 0.105668 -0.436543)
(0.000249989 -0.00418122 -0.00170886 -0.0170335 0.0967201 -0.485504)
(-7.41655e-05 -0.00353596 0.00346323 -0.0155006 0.0712714 -0.476413)
(-0.000170667 0.00259864 -0.00175216 -0.015195 0.070357 -0.476359)
(4.97797e-05 0.00122619 0.00266112 -0.0141532 0.0904247 -0.48657)
(-0.00124123 -6.59624e-05 -0.00116788 -0.0198193 0.083571 -0.45243)
(-0.00052734 0.000499445 -0.00503874 -0.0181325 0.0911345 -0.481743)
(-0.000197684 -0.000177625 -0.00466414 -0.028638 0.0829415 -0.442236)
(-0.000182388 0.000285338 -0.00711246 -0.0108436 0.088784 -0.484838)
(-0.000639077 -0.000100912 -0.00550314 -0.00852562 0.0825982 -0.479571)
(-0.0021025 -0.00104814 -0.0103079 -0.00822858 0.0824537 -0.483341)
(-0.00328585 0.000261266 -0.0183196 -0.00409838 0.071242 -0.476952)
(-0.00567304 0.000652297 -0.0296132 -0.00430537 0.0810602 -0.479621)
(-0.0102832 -0.000473274 -0.0523743 -0.0161557 0.0738606 -0.451389)
(-0.018081 0.00441527 -0.0917338 -0.00632778 0.078595 -0.479012)
(-0.026221 0.00156637 -0.16232 -0.0190876 0.103368 -0.449131)
(-0.0423979 -0.00306263 -0.249197 -0.0152837 0.0900905 -0.509912)
(-0.0973037 0.00137049 -0.201945 -0.0256138 0.123281 -0.243754)
(-0.0479153 -0.00708944 0.0875669 -0.0147481 0.0630924 -0.360512)
(-0.00887135 -0.00226116 0.171266 -0.0121214 0.0682146 -0.495408)
(-0.0154328 -0.00154429 0.137245 -0.0157111 0.0700906 -0.457303)
(-0.0153429 0.000259867 0.0754391 -0.0265305 0.0572253 -0.432702)
(-0.00668794 0.00265868 0.0415165 -0.0102004 0.0745466 -0.490729)
(-0.00349891 0.00271913 0.0367051 -0.0181799 0.0823397 -0.478574)
(-0.00435692 0.000248975 0.0213198 -0.0362262 0.0960069 -0.434374)
(-0.00231431 -0.00330311 0.0084578 -0.0189238 0.0833939 -0.483503)
(-0.000738036 -0.00138236 0.00708696 -0.0116964 0.0729805 -0.484876)
(-0.000843645 -0.00056124 0.00490535 -0.0163595 0.0769851 -0.485832)
(0.000233197 0.000796395 0.00204409 -0.0146502 0.0672251 -0.493043)
(5.6996e-06 0.00149056 0.00703651 -0.0196799 0.0851812 -0.486357)
(-0.00149823 8.73595e-05 0.00228212 -0.035756 0.0803544 -0.439647)
(-0.000131141 -0.00174499 -0.00380368 -0.0204825 0.0840953 -0.486258)
(0.000496032 -0.00248572 0.0010169 -0.00850914 0.0689766 -0.503053)
(0.000234563 0.00179813 0.000356441 -0.00824658 0.0682221 -0.502723)
(-0.00027872 -0.000443105 0.0033651 -0.0175475 0.0796942 -0.487268)
(-0.00132397 -0.000228701 -0.00159247 -0.023483 0.0638341 -0.458754)
(-0.000440889 0.000795337 -0.00557895 -0.0194094 0.0789287 -0.485969)
(4.05916e-05 0.000338961 -0.004366 -0.0148667 0.066994 -0.492572)
(-0.000112917 0.00125522 -0.00509493 -0.0143193 0.0813071 -0.490054)
(-0.000893942 -9.66978e-05 -0.00474676 -0.0134427 0.0762002 -0.483677)
(-0.00214898 -0.000982451 -0.0104957 -0.0140516 0.0754457 -0.484482)
(-0.00330021 0.000108076 -0.0178646 -0.0106339 0.066892 -0.480486)
(-0.00580313 0.000425131 -0.0304302 -0.0166694 0.0773015 -0.469321)
(-0.00975427 -3.22331e-05 -0.0530526 -0.00662732 0.0680519 -0.495996)
(-0.0179458 0.00240875 -0.0879456 -0.0120248 0.077132 -0.482784)
(-0.0274837 -7.64605e-05 -0.161848 -0.0308529 0.0834588 -0.435803)
(-0.0431668 -0.00149386 -0.254256 -0.0219105 0.0761384 -0.508113)
(-0.0994438 -0.000652217 -0.203795 -0.038701 0.100324 -0.221267)
(-0.0467119 -0.00404099 0.0775926 -0.0233176 0.0472558 -0.34833)
(-0.00648923 -0.00228512 0.16704 -0.017809 0.0576767 -0.49547)
(-0.0148248 -0.0021671 0.135068 -0.0253953 0.0521966 -0.439635)
(-0.0147851 0.00208454 0.0753134 -0.0136234 0.0416076 -0.481377)
(-0.00656813 0.0031963 0.0438243 -0.010114 0.0694622 -0.501568)
(-0.00372545 -0.000201674 0.0376379 -0.0206364 0.0701643 -0.484896)
(-0.0046833 4.03778e-05 0.0218249 -0.0389633 0.0682394 -0.436071)
(-0.0025238 -0.00099514 0.00710309 -0.0231252 0.0699685 -0.486362)
(-0.000614365 -0.000786225 0.00595534 -0.0164891 0.0641436 -0.487698)
(-0.000672486 0.000335128 0.0040905 -0.0179861 0.0664268 -0.489997)
(0.000333344 0.00046458 0.00210264 -0.0034104 0.0662003 -0.525183)
(1.9758e-05 -0.00141432 0.00727939 -0.0206223 0.0724087 -0.494133)
(-0.0015463 -6.96907e-05 0.00242414 -0.0284763 0.0557855 -0.461695)
(-0.000335695 0.000697586 -0.00380508 -0.0217123 0.0707399 -0.489848)
(0.000674296 -0.00118058 -6.89728e-06 -0.0117143 0.0660132 -0.506064)
(0.00027741 0.000751624 0.00120176 -0.0115432 0.0653731 -0.505408)
(-0.000468558 -0.00159787 0.00216998 -0.0192439 0.0680866 -0.490203)
(-0.00104688 -0.000229766 -0.00192465 -0.0139754 0.0494293 -0.499243)
(-0.000338369 0.00207952 -0.00469553 -0.019459 0.0669396 -0.492262)
(6.01528e-05 0.000543607 -0.00390489 -0.00385137 0.0657572 -0.524296)
(-9.5608e-05 0.00010208 -0.00370304 -0.0173632 0.071422 -0.493789)
(-0.00110211 -0.00040788 -0.00414144 -0.0180578 0.0662819 -0.485912)
(-0.00223341 -0.000944049 -0.010825 -0.0193228 0.0648403 -0.485134)
(-0.00317129 -0.000858968 -0.0178341 -0.0159357 0.0580582 -0.483682)
(-0.00577958 0.00164576 -0.0299675 -0.0269611 0.0594581 -0.450274)
(-0.00975291 0.000805882 -0.0531371 -0.00966294 0.0711971 -0.501387)
(-0.0180916 -0.000996479 -0.0877276 -0.0198543 0.064895 -0.467823)
(-0.0279193 -0.000777449 -0.163288 -0.0312415 0.0594289 -0.442211)
(-0.04428 -9.14038e-05 -0.255957 -0.0232187 0.0603605 -0.510221)
(-0.101728 -0.00172914 -0.209295 -0.0428908 0.0702185 -0.211158)
(-0.0398833 -0.00124858 0.0766982 -0.0212016 0.0291569 -0.376238)
(-0.00549829 -0.00142766 0.16427 -0.0202824 0.0447261 -0.497217)
(-0.0140875 -0.000855013 0.133296 -0.0214249 0.0328396 -0.467864)
(-0.0143293 0.00382425 0.0774081 -0.00312457 0.0411767 -0.512053)
(-0.00705055 0.00176684 0.0456366 -0.0135586 0.0646315 -0.501798)
(-0.00395678 -0.0029705 0.0360206 -0.0224052 0.0568334 -0.488892)
(-0.00447312 -0.000465414 0.021918 -0.0317489 0.0427101 -0.458055)
(-0.00258383 0.00080502 0.00738122 -0.0251528 0.0537468 -0.488691)
(-0.000557002 1.45398e-05 0.0054541 -0.0203186 0.0523113 -0.488819)
(-0.00062259 0.00201657 0.00441547 -0.0201979 0.0548535 -0.492027)
(-3.20452e-05 0.000290133 0.00198868 -0.00398189 0.0696204 -0.53081)
(3.73669e-05 -0.00352214 0.00492981 -0.0218634 0.0598098 -0.498545)
(-0.00109637 -0.00022386 0.00242129 -0.0170788 0.0436913 -0.502937)
(-0.000414785 0.00130631 -0.0023777 -0.0226977 0.0572636 -0.491832)
(0.000590652 -0.000493149 -0.000305593 -0.0183985 0.0570255 -0.499537)
(0.000211165 0.00025104 0.0014472 -0.0183476 0.0564456 -0.498801)
(-0.000564817 -0.000926513 0.000893623 -0.0211483 0.0558928 -0.491872)
(-0.000684669 -0.000161275 -0.00216332 -0.00623618 0.047329 -0.523009)
(-0.000257509 0.00260737 -0.00312064 -0.0205392 0.0551905 -0.495715)
(-0.000203246 0.000495159 -0.00355831 -0.00456153 0.068763 -0.530145)
(-0.000142936 -0.00192644 -0.00390802 -0.0206736 0.0597687 -0.494561)
(-0.00111351 -0.000985091 -0.00402863 -0.021705 0.0534613 -0.487179)
(-0.00240374 -0.000833049 -0.0111849 -0.0227674 0.0503473 -0.485804)
(-0.00289796 -0.00158266 -0.019272 -0.0192091 0.0464308 -0.48716)
(-0.00548124 0.00182983 -0.0281897 -0.0248717 0.0385067 -0.475109)
(-0.0102187 0.00169864 -0.0522756 -0.0237254 0.0609361 -0.469984)
(-0.0183195 -0.00229714 -0.0900983 -0.0199396 0.0503035 -0.486551)
(-0.0276952 -0.000808819 -0.164047 -0.0222552 0.0403247 -0.467343)
(-0.0449622 0.000554978 -0.255647 -0.0212743 0.046024 -0.514454)
(-0.0998909 -0.000832016 -0.213014 -0.0356264 0.0407156 -0.229451)
(-0.0354133 -0.000745806 0.0762182 -0.0158295 0.0190052 -0.39889)
(-0.00490735 -0.000514792 0.163568 -0.020916 0.0317945 -0.499296)
(-0.0134867 0.00112621 0.132845 -0.0150485 0.0239894 -0.488591)
(-0.0142534 0.003842 0.0800732 -0.00563251 0.0447459 -0.513419)
(-0.00785875 -0.000328028 0.0457737 -0.0237724 0.0552696 -0.484922)
(-0.00407324 -0.00386741 0.0325313 -0.0238106 0.0423146 -0.490425)
(-0.0039039 -0.000834954 0.0211764 -0.0231414 0.0277669 -0.491739)
(-0.0024554 0.00117172 0.00856544 -0.0246479 0.0372366 -0.491207)
(-0.000457056 0.000574662 0.00591397 -0.0227454 0.0383435 -0.48937)
(-0.000684339 0.00341267 0.00605212 -0.0230649 0.0416644 -0.491692)
(-0.000670143 0.000209597 0.00187319 -0.0174995 0.068627 -0.508024)
(4.68208e-05 -0.00405228 0.00196181 -0.0249516 0.0459507 -0.497287)
(-0.000608452 -0.000254808 0.00233018 -0.0178922 0.0398612 -0.506855)
(-0.000450227 0.000440719 -0.00172677 -0.0243293 0.0430401 -0.491811)
(0.000555064 -0.000354592 -0.000513191 -0.0238285 0.0429863 -0.493258)
(0.000239147 0.000162241 0.00168301 -0.0239729 0.0424023 -0.492309)
(-0.000633667 0.0005915 0.000685552 -0.0241715 0.0423428 -0.491771)
(-0.0004366 -9.00825e-05 -0.0023605 -0.0100424 0.0480259 -0.521228)
(-0.000206327 0.00235302 -0.00145846 -0.0235008 0.0422469 -0.495282)
(-0.000706273 0.000350324 -0.00340003 -0.0179543 0.0672917 -0.508308)
(-0.000264447 -0.00359341 -0.00591763 -0.0247028 0.0459149 -0.491791)
(-0.000885858 -0.00135779 -0.00483045 -0.0239957 0.0387136 -0.488328)
(-0.00245811 -0.000620753 -0.0114525 -0.023503 0.0347716 -0.487739)
(-0.00272063 -0.00120497 -0.0202872 -0.0208466 0.0335039 -0.489867)
(-0.00510728 0.00087297 -0.0273113 -0.0189212 0.0263799 -0.494655)
(-0.0105528 0.00202771 -0.0505641 -0.0277366 0.0385321 -0.468644)
(-0.0186685 -0.000941759 -0.091606 -0.0223815 0.0407037 -0.486367)
(-0.0273128 -0.00101244 -0.164823 -0.0166896 0.03339 -0.494709)
(-0.0445732 0.000653413 -0.254561 -0.0194257 0.0346319 -0.518112)
(-0.0935819 0.00112866 -0.213654 -0.0245838 0.0236834 -0.266952)
(-0.0327054 -0.00123569 0.0746572 -0.0145833 0.0113963 -0.409244)
(-0.00405557 0.000124252 0.162476 -0.0214234 0.0189777 -0.50094)
(-0.0130709 0.0023316 0.134428 -0.0158832 0.0169136 -0.491448)
(-0.0145852 0.00225957 0.0823021 -0.0212255 0.0412181 -0.485742)
(-0.00854018 -0.00161788 0.0442864 -0.0320484 0.0338723 -0.459366)
(-0.00401638 -0.00279693 0.0297831 -0.0242835 0.0269856 -0.492402)
(-0.0034411 -0.00079352 0.0203806 -0.0185132 0.0154809 -0.493249)
(-0.00226697 0.000936189 0.00906418 -0.0230761 0.0226395 -0.492744)
(-0.000207953 0.000551842 0.00660608 -0.0238055 0.0235432 -0.49091)
(-0.000783067 0.00308782 0.00863358 -0.0260478 0.026456 -0.490178)
(-0.00140614 0.000102895 0.00177846 -0.0378182 0.0514192 -0.457946)
(6.37321e-05 -0.00357767 -0.000994497 -0.0287269 0.0292283 -0.493718)
(-0.000213155 -9.23737e-05 0.00233656 -0.025485 0.0249845 -0.48392)
(-0.000501363 0.000237632 -0.00203198 -0.0264215 0.0276099 -0.491341)
(0.000609466 -0.000442289 -0.000856642 -0.0269375 0.0263638 -0.490129)
(0.000422665 6.10547e-05 0.00205134 -0.0272955 0.0255662 -0.488846)
(-0.000693641 0.00162241 0.00182398 -0.0279954 0.0264553 -0.490159)
(-0.000394241 6.46231e-06 -0.00258984 -0.0262856 0.0416067 -0.492509)
(-0.000177578 0.00115705 -0.000232959 -0.0276713 0.0266916 -0.492358)
(-0.00128195 0.000231021 -0.00337221 -0.037719 0.0498255 -0.460052)
(-0.000397229 -0.00336171 -0.00912883 -0.0288982 0.0292032 -0.487223)
(-0.00051113 -0.00113242 -0.00580163 -0.0250524 0.0231879 -0.490178)
(-0.00241652 -0.000357068 -0.011612 -0.0229878 0.0204404 -0.48837)
(-0.00265366 -0.000584873 -0.0208019 -0.0215268 0.0201167 -0.49222)
(-0.00481368 0.000544098 -0.0272443 -0.0178692 0.0168847 -0.502)
(-0.0105916 0.00110413 -0.0489982 -0.0246554 0.0232324 -0.48846)
(-0.0190252 -0.000206176 -0.0913573 -0.0272324 0.0230626 -0.468734)
(-0.0270371 -0.000283793 -0.166138 -0.0228177 0.0241542 -0.473793)
(-0.043282 0.000571576 -0.252425 -0.0192423 0.0235381 -0.52133)
(-0.0924082 0.00157613 -0.207688 -0.0169971 0.011798 -0.275831)
(-0.0315664 -0.000785508 0.0705444 -0.0155876 0.00264983 -0.409794)
(-0.00307809 0.000354159 0.163377 -0.0221157 0.0054882 -0.501284)
(-0.013015 0.00150706 0.136186 -0.0191785 0.0059063 -0.487175)
(-0.0150117 0.000889474 0.0823226 -0.0389145 0.0188738 -0.441543)
(-0.00882826 -0.0007174 0.0423434 -0.0301225 0.0115629 -0.474912)
(-0.00389202 -0.00100492 0.0282718 -0.0238678 0.0118745 -0.493772)
(-0.00313206 -0.000499566 0.0197942 -0.0126952 0.00557707 -0.517593)
(-0.00213766 0.00027632 0.00988783 -0.0219599 0.00912719 -0.493222)
(-0.000117711 5.8531e-06 0.00703166 -0.024145 0.00857171 -0.491486)
(-0.00084722 0.00101647 0.0099871 -0.0281778 0.00933534 -0.48751)
(-0.00189879 -1.59206e-05 0.00169797 -0.0505983 0.018303 -0.433701)
(0.000101015 -0.00152946 -0.00338989 -0.031372 0.0100522 -0.490306)
(0.000145874 0.000151829 0.00252499 -0.025353 0.00652137 -0.497873)
(-0.000586378 0.000272404 -0.00163289 -0.0284421 0.0106019 -0.490738)
(0.000563574 -0.000493288 -0.00134243 -0.0283231 0.00878701 -0.48886)
(0.000657151 -0.000297442 0.00221197 -0.0285958 0.00764901 -0.487534)