/*--------------------------------*- C++ -*----------------------------------*\
| =========                 |                                                 |
| \\      /  F ield         | OpenFOAM: The Open Source CFD Toolbox           |
|  \\    /   O peration     | Version:  2106                                  |
|   \\  /    A nd           | Website:  www.openfoam.com                      |
|    \\/     M anipulation  |                                                 |
\*---------------------------------------------------------------------------*/
FoamFile
{
    version     2.0;
    format      ascii;
    arch        "LSB;label=32;scalar=64";
    class       volSymmTensorField;
    location    "226";
    object      sigma;
}
// * * * * * * * * * * * * * * * * * * * * * * * * * * * * * * * * * * * * * //

dimensions      [1 -1 -2 0 0 0 0];

internalField   nonuniform List<symmTensor> 
9000
(
(-5.33196e+07 1.49711e+06 4.98375e+07 -2.12009e+07 -1.04136e+07 -6.69081e+08)
(-2.49662e+08 -571983 1.0972e+08 -6.75756e+07 -2.69206e+07 -1.10359e+09)
(-1.77845e+08 -2.23672e+06 1.14166e+08 -4.97544e+07 -2.72493e+07 -8.69683e+08)
(1.57106e+06 1.08223e+06 8.39322e+07 1.72591e+07 -2.78253e+07 -3.52081e+08)
(-1.69396e+07 338781 4.61643e+07 888349 9.85238e+06 -3.95175e+08)
(3.58996e+07 -47416.9 1.81585e+07 2.50897e+07 -8.32253e+06 -2.62195e+08)
(-3.03514e+07 2.361e+06 -9.50433e+06 -2.13446e+06 6.11811e+06 -4.60413e+08)
(-1.94181e+08 -48531.5 -8.28916e+06 -5.12054e+07 -1.16663e+07 -9.47114e+08)
(-1.07195e+07 205172 5.79457e+06 1.38958e+07 -3.10901e+07 -4.40812e+08)
(-1.96531e+08 1.19597e+06 1.03107e+07 -5.14757e+07 -1.03052e+07 -9.65167e+08)
(-1.01847e+08 -2.27987e+06 3.91125e+07 -3.22701e+07 1.30898e+07 -6.66495e+08)
(3.76024e+07 -149494 4.44276e+06 2.7682e+07 8.31897e+06 -2.60749e+08)
(-8.47136e+07 1.18731e+06 -2.03198e+07 -2.70688e+07 1.18717e+07 -6.16034e+08)
(-5.66267e+07 450833 -3.64554e+06 4.96622e+06 -2.22626e+07 -5.73312e+08)
(-1.07748e+08 431786 -3.53913e+06 -3.55941e+07 1.41135e+07 -6.88418e+08)
(-1.09698e+08 -404050 346556 -3.59121e+07 1.36181e+07 -6.88406e+08)
(-7.11149e+07 -277727 -9.28722e+06 1.92687e+06 -2.67263e+07 -5.99133e+08)
(-1.51041e+08 1.16316e+06 -1.26676e+07 -4.22136e+07 -3.08042e+06 -8.26841e+08)
(-2.06884e+08 -433951 1.35998e+07 -5.48602e+07 -5.98685e+06 -1.00375e+09)
(-1.0161e+08 -2.6908e+06 3.60065e+07 -3.22282e+07 1.29403e+07 -6.65018e+08)
(4.51254e+07 -1.93537e+06 6.05263e+06 3.04158e+07 2.52148e+06 -2.32704e+08)
(1.48765e+07 960899 -3.39405e+07 2.08754e+07 -2.03121e+07 -3.40555e+08)
(-2.09545e+08 -99378.1 -2.15256e+07 -5.50813e+07 -2.22353e+07 -9.91434e+08)
(-1.649e+07 -1.37542e+06 -1.57678e+07 1.20439e+07 -3.5583e+07 -4.42968e+08)
(-1.43899e+08 1.46567e+06 -2.7012e+07 -4.34565e+07 -1.50132e+07 -7.91575e+08)
(-1.29609e+08 -199860 -1.30208e+07 -4.08826e+07 -1.2762e+06 -7.33294e+08)
(-1.61774e+06 -572272 -4.72439e+07 1.41092e+07 -7.63001e+06 -3.4409e+08)
(-4.91532e+07 76972 -1.04369e+08 -4.44107e+06 -3.70065e+06 -4.67554e+08)
(-7.84251e+07 1.47991e+06 -1.42121e+08 1.13965e+06 -2.66888e+07 -5.52841e+08)
(3.02353e+07 3.21519e+06 -1.02739e+08 2.78151e+07 1.83347e+07 -1.6241e+08)
(-4.87811e+07 6.26613e+06 6.44209e+07 -2.2112e+07 -2.54688e+07 -6.22951e+08)
(-1.28796e+08 230663 1.16476e+08 -1.36768e+07 -1.65596e+07 -7.56993e+08)
(-1.67541e+08 -8.93003e+06 9.56886e+07 -7.22189e+07 -5.40315e+07 -8.03542e+08)
(-6.98104e+07 -760543 6.91357e+07 -2.31395e+07 -6.89061e+07 -5.39954e+08)
(-7.68918e+07 244047 3.94627e+07 -4.85888e+07 8.20374e+06 -5.42033e+08)
(-5.16171e+07 286695 2.0323e+07 -2.58115e+07 -3.0989e+07 -4.9745e+08)
(-8.00056e+07 8.66013e+06 9.79164e+06 -4.35189e+07 4.76017e+06 -5.78806e+08)
(-9.24502e+07 -370205 3.67849e+06 -3.03257e+06 9.25068e+06 -6.68512e+08)
(-6.28499e+07 751042 6.12153e+06 -1.11476e+07 -6.92141e+07 -5.69939e+08)
(-9.6175e+07 4.07804e+06 3.75625e+06 -5.02248e+06 1.45796e+07 -6.86145e+08)
(-1.23566e+08 -8.4281e+06 1.46472e+07 -7.06452e+07 1.75061e+07 -6.98662e+08)
(-4.67763e+07 -821674 3.6611e+06 -2.3776e+07 1.14951e+07 -4.92872e+08)
(-1.10401e+08 3.5719e+06 -1.85882e+06 -6.31307e+07 1.22792e+07 -6.61823e+08)
(-1.48205e+07 1.63005e+06 -1.77999e+06 4.78588e+07 -1.72333e+07 -4.74863e+08)
(-1.24684e+08 2.1945e+06 -1.05966e+07 -7.43944e+07 1.9818e+07 -7.04971e+08)
(-1.25238e+08 -1.96162e+06 9.42691e+06 -7.43128e+07 1.86384e+07 -7.04122e+08)
(-2.0962e+07 701356 -3.12834e+06 4.78178e+07 -2.56075e+07 -4.86736e+08)
(-1.52567e+08 5.27985e+06 -9.07971e+06 -7.50263e+07 -510649 -7.91098e+08)
(-1.07218e+08 -2.4139e+06 4.64735e+06 -1.31918e+07 2.64357e+07 -7.20932e+08)
(-1.23026e+08 -1.02004e+07 1.26901e+07 -7.04351e+07 1.69924e+07 -6.97527e+08)
(-3.71475e+07 -6.27617e+06 4.82385e+06 -1.59156e+07 -2.84783e+06 -4.65396e+08)
(-5.33239e+07 5.79696e+06 -1.15373e+07 -1.47621e+07 -5.14022e+07 -5.22109e+08)
(-9.49403e+07 366390 -1.51432e+07 3.54889e+06 -1.11496e+07 -6.77137e+08)
(-6.9102e+07 -3.35147e+06 -2.56412e+07 -1.49841e+07 -7.98657e+07 -5.76473e+08)
(-1.51955e+08 5.00246e+06 -2.83834e+07 -7.88173e+07 -3.32692e+07 -7.80203e+08)
(-1.43171e+08 -2.99006e+06 -2.27926e+07 -7.63281e+07 -1.17957e+07 -7.38031e+08)
(-7.37018e+07 -3.17639e+06 -5.19586e+07 -2.89945e+07 -3.01571e+07 -5.34813e+08)
(-9.56648e+07 423824 -9.53204e+07 -4.27724e+07 -1.53867e+07 -5.7382e+08)
(-4.47519e+07 1.49579e+06 -1.48643e+08 3.46134e+07 -2.87555e+07 -4.67896e+08)
(-240372 1.92323e+06 -1.16376e+08 1.92628e+07 2.13815e+07 -3.03218e+08)
(-1.29063e+07 5.88396e+06 7.13814e+07 3.05921e+07 1.75872e+06 -4.65963e+08)
(-4.98003e+07 12770.3 1.20564e+08 1.7232e+07 3.41959e+06 -5.24093e+08)
(-9.55638e+07 -5.10101e+06 8.78096e+07 -1.78255e+07 -2.14621e+07 -6.25247e+08)
(-5.00317e+07 -296641 6.03547e+07 2.03176e+07 -2.81025e+07 -5.24049e+08)
(-4.50276e+07 671865 3.54911e+07 -4.32189e+06 3.54029e+07 -4.9258e+08)
(-3.77831e+07 326337 2.07803e+07 1.47929e+07 1.0491e+07 -5.02851e+08)
(-5.00622e+07 4.65573e+06 1.81623e+07 -5.76233e+06 3.78844e+07 -5.26851e+08)
(-2.10507e+07 -1.13101e+06 1.0383e+07 2.94912e+07 3.02352e+07 -4.72931e+08)
(-3.41386e+07 957278 6.88493e+06 3.45232e+07 -2.7416e+07 -5.19866e+08)
(-2.43164e+07 4.82001e+06 1.67852e+06 2.62565e+07 3.73582e+07 -4.84804e+08)
(-7.09999e+07 -4.1e+06 2.18538e+06 -2.37664e+07 5.47532e+07 -5.82531e+08)
(-3.45796e+07 -979795 2.79717e+06 6.60836e+06 5.46296e+07 -4.97307e+08)
(-6.27937e+07 -337269 5.16322e+06 -1.60314e+07 4.90691e+07 -5.61986e+08)
(1.55922e+07 1.39075e+06 388356 7.06433e+07 1.3569e+07 -3.98833e+08)
(-6.1297e+07 4.74508e+06 -7.96977e+06 -1.86751e+07 5.12181e+07 -5.61466e+08)
(-6.11814e+07 -4.66274e+06 8.15664e+06 -1.85951e+07 4.98212e+07 -5.61188e+08)
(1.34635e+07 486815 501754 7.11194e+07 4.71056e+06 -4.04362e+08)
(-7.01332e+07 5.24279e+06 -4.98212e+06 -1.48463e+07 3.24172e+07 -5.8744e+08)
(-3.22503e+07 -1.74518e+06 -1.75338e+06 1.70171e+07 5.06437e+07 -5.07195e+08)
(-7.04176e+07 -6.49666e+06 37765.7 -2.35762e+07 5.41814e+07 -5.82374e+08)
(-2.72539e+07 -6.49466e+06 1.63379e+06 1.54117e+07 3.90372e+07 -4.79473e+08)
(-3.20333e+07 1.31466e+06 -1.94932e+06 2.82197e+07 -9.81847e+06 -5.02605e+08)
(-2.00411e+07 -11276.6 -1.12976e+07 3.80189e+07 8.90098e+06 -4.70642e+08)
(-4.04528e+07 281049 -2.63496e+07 3.08185e+07 -3.86143e+07 -5.30641e+08)
(-8.65012e+07 5.46554e+06 -2.69594e+07 -2.56538e+07 111107 -6.25961e+08)
(-8.76558e+07 -1.72245e+06 -2.89151e+07 -2.75702e+07 2.47323e+07 -6.09833e+08)
(-5.51577e+07 -3.96621e+06 -5.72997e+07 1.02383e+07 1.67967e+07 -5.19359e+08)
(-6.78683e+07 -3.81911e+06 -9.67561e+07 -6.34036e+06 1.66021e+07 -5.24797e+08)
(-2.33439e+07 1.63364e+06 -1.51303e+08 4.98668e+07 -1.50047e+06 -4.11718e+08)
(9.62446e+06 1.39859e+06 -1.18115e+08 6.20557e+07 4.92457e+07 -2.87041e+08)
(2.4293e+07 4.36111e+06 7.4346e+07 7.50223e+07 2.61094e+07 -2.96786e+08)
(-1.37954e+06 -578384 1.21296e+08 4.16559e+07 2.03557e+07 -3.86999e+08)
(-2.01767e+07 -828963 8.71951e+07 3.37189e+07 1.03914e+07 -4.36897e+08)
(-4.57192e+06 898828 5.5377e+07 5.38886e+07 1.55578e+07 -4.15084e+08)
(-5.04214e+06 1.04104e+06 3.31276e+07 2.86085e+07 6.03291e+07 -4.04062e+08)
(4.04813e+06 210337 2.09001e+07 4.53353e+07 4.90774e+07 -4.05792e+08)
(-1.3561e+06 331250 1.89727e+07 2.93554e+07 6.4142e+07 -4.11938e+08)
(2.26843e+07 -2.08155e+06 1.33595e+07 5.25846e+07 4.65104e+07 -3.58332e+08)
(1.41416e+07 791472 7.43497e+06 6.67018e+07 1.59256e+07 -3.98293e+08)
(2.11181e+07 4.7825e+06 1.25361e+06 4.92086e+07 5.26533e+07 -3.62623e+08)
(-6.10697e+06 393620 -602171 1.8852e+07 7.98195e+07 -4.22511e+08)
(1.49655e+07 -822394 2.09694e+06 3.90809e+07 8.30833e+07 -3.78341e+08)
(-1.92633e+06 -3.15176e+06 4.60526e+06 2.52917e+07 7.55518e+07 -4.14394e+08)
(3.54209e+07 722514 1.52539e+06 7.53069e+07 4.33668e+07 -3.43433e+08)
(-2.21119e+06 5.31737e+06 -2.88348e+06 2.28604e+07 7.44348e+07 -4.15678e+08)
(-1.86233e+06 -5.49103e+06 3.96559e+06 2.29177e+07 7.30581e+07 -4.16054e+08)
(3.48869e+07 -626768 2.39808e+06 7.63088e+07 3.50965e+07 -3.45958e+08)
(6.80957e+06 3.78897e+06 -2.47186e+06 3.78151e+07 5.36387e+07 -3.96157e+08)
(1.55002e+07 152949 -5.05989e+06 3.98942e+07 6.42378e+07 -3.76362e+08)
(-5.60774e+06 -1.98604e+06 -3.18294e+06 1.89161e+07 7.93382e+07 -4.23142e+08)
(2.03755e+07 -5.4002e+06 -721549 4.77843e+07 6.93839e+07 -3.67435e+08)
(1.31259e+07 -2.56848e+06 -1.20185e+06 5.88411e+07 3.10896e+07 -3.95201e+08)
(2.51362e+07 -496540 -9.02758e+06 6.17983e+07 2.7829e+07 -3.53685e+08)
(1.00912e+07 2.78348e+06 -2.22265e+07 6.51684e+07 5.92802e+06 -4.06281e+08)
(-1.35692e+07 4.93378e+06 -2.53203e+07 2.56268e+07 2.98737e+07 -4.45459e+08)
(-1.85887e+07 -87145.9 -3.16285e+07 1.91483e+07 5.36881e+07 -4.36977e+08)
(2.13818e+06 -3.55108e+06 -6.18889e+07 4.78686e+07 5.35098e+07 -3.76596e+08)
(-2.121e+07 -5.82761e+06 -1.03457e+08 2.69965e+07 4.53572e+07 -4.14507e+08)
(-1.06298e+07 1.30939e+06 -1.51485e+08 5.09522e+07 2.70738e+07 -3.71189e+08)
(3.05149e+07 -205685 -1.20255e+08 9.55404e+07 7.15299e+07 -2.00566e+08)
(4.73118e+07 2.62082e+06 7.76486e+07 9.80566e+07 3.6161e+07 -1.84519e+08)
(2.06287e+07 -964303 1.20501e+08 5.11438e+07 3.21512e+07 -3.21675e+08)
(2.72789e+07 1.08662e+06 8.88168e+07 6.11971e+07 2.70019e+07 -3.14491e+08)
(2.91361e+07 2.29113e+06 5.3171e+07 6.79139e+07 3.93077e+07 -3.22267e+08)
(2.67479e+07 1.14404e+06 3.17141e+07 4.64254e+07 7.42245e+07 -3.23972e+08)
(3.67139e+07 -215502 2.0578e+07 5.77918e+07 6.66052e+07 -3.16683e+08)
(3.23733e+07 -1.43406e+06 1.7134e+07 4.75865e+07 7.479e+07 -3.25634e+08)
(4.35608e+07 -2.77968e+06 1.39995e+07 6.09038e+07 5.77313e+07 -3.02164e+08)
(4.76229e+07 479137 7.67736e+06 7.75971e+07 3.9142e+07 -3.04087e+08)
(4.28996e+07 4.00906e+06 1.70442e+06 5.74401e+07 6.24713e+07 -3.02249e+08)
(4.3573e+07 1.96963e+06 50485.3 4.84272e+07 8.32501e+07 -2.96329e+08)
(4.36141e+07 -515189 1.60478e+06 4.63151e+07 8.98713e+07 -2.95468e+08)
(4.44197e+07 -3.22114e+06 2.29021e+06 5.28747e+07 8.0862e+07 -2.97996e+08)
(4.52636e+07 465952 2.10598e+06 6.83895e+07 6.24713e+07 -3.09279e+08)
(4.43751e+07 4.02961e+06 1.46898e+06 5.1899e+07 8.13703e+07 -2.96417e+08)
(4.47381e+07 -4.44335e+06 115935 5.20117e+07 8.00742e+07 -2.97064e+08)
(4.53064e+07 -1.19911e+06 2.34821e+06 6.98248e+07 5.50796e+07 -3.10036e+08)
(4.36353e+07 2.39053e+06 -1.2884e+06 5.71614e+07 6.4237e+07 -2.99577e+08)
(3.86778e+07 946874 -5.67152e+06 4.89764e+07 7.17299e+07 -3.115e+08)
(4.39628e+07 -124236 -2.88738e+06 4.84051e+07 8.285e+07 -2.97276e+08)
(4.79637e+07 -3.86625e+06 -2.36559e+06 5.40932e+07 7.85906e+07 -2.87637e+08)
(4.61271e+07 -3.40823e+06 -3.05123e+06 6.96485e+07 5.10593e+07 -3.04992e+08)
(4.65137e+07 -822830 -7.79107e+06 6.94457e+07 4.2367e+07 -2.97589e+08)
(4.61688e+07 2.81961e+06 -1.77304e+07 7.83862e+07 3.01392e+07 -3.06867e+08)
(3.38373e+07 3.76237e+06 -2.36578e+07 5.4041e+07 4.33739e+07 -3.2216e+08)
(3.46543e+07 332041 -3.26378e+07 5.19262e+07 6.07425e+07 -3.00232e+08)
(4.2179e+07 -2.00141e+06 -6.49695e+07 6.30873e+07 6.25608e+07 -2.64348e+08)
(1.10599e+07 -4.26121e+06 -1.09293e+08 4.31996e+07 5.85189e+07 -3.31177e+08)
(-7.03539e+06 440317 -1.51836e+08 4.2375e+07 4.68452e+07 -3.47742e+08)
(4.47431e+07 -1.76825e+06 -1.24327e+08 1.11951e+08 8.12543e+07 -1.29008e+08)
(5.60698e+07 574664 7.83528e+07 1.04796e+08 3.9131e+07 -1.38194e+08)
(2.77282e+07 -1.02658e+06 1.19166e+08 5.10957e+07 4.01501e+07 -2.97437e+08)
(4.66263e+07 1.53973e+06 9.01862e+07 6.98207e+07 3.49903e+07 -2.6283e+08)
(4.35904e+07 2.89476e+06 5.30532e+07 6.94714e+07 5.06765e+07 -2.77266e+08)
(4.79638e+07 883356 3.08211e+07 5.19541e+07 7.76901e+07 -2.63143e+08)
(5.19191e+07 -115461 1.96689e+07 5.9106e+07 7.06467e+07 -2.70239e+08)
(4.56549e+07 -1.42579e+06 1.53403e+07 5.32416e+07 7.8065e+07 -2.89886e+08)
(5.02342e+07 -3.23909e+06 1.33479e+07 5.90764e+07 6.44388e+07 -2.80437e+08)
(6.10954e+07 109627 7.73498e+06 7.56312e+07 4.87376e+07 -2.60683e+08)
(4.96761e+07 3.27314e+06 2.03687e+06 5.48303e+07 6.74461e+07 -2.78795e+08)
(5.314e+07 1.51624e+06 1.03611e+06 5.09896e+07 8.10409e+07 -2.68504e+08)
(6.33538e+07 -75400.2 1.31493e+06 5.47244e+07 8.22951e+07 -2.40848e+08)
(5.08179e+07 -1.74729e+06 539184 5.37698e+07 8.10707e+07 -2.7944e+08)
(4.78473e+07 4819.51 2.69037e+06 5.72783e+07 7.17048e+07 -2.92742e+08)
(5.83366e+07 2.19601e+06 3.85871e+06 5.30241e+07 8.10828e+07 -2.52049e+08)
(5.86477e+07 -2.7984e+06 -2.09312e+06 5.31856e+07 7.99493e+07 -2.53007e+08)
(4.81022e+07 -1.34096e+06 2.09795e+06 5.88643e+07 6.50508e+07 -2.92374e+08)
(6.82638e+07 1.42121e+06 -696039 6.92344e+07 6.60549e+07 -2.3453e+08)
(4.6098e+07 1.32309e+06 -6.00463e+06 4.7322e+07 7.47336e+07 -2.86236e+08)
(5.34388e+07 -280486 -2.18344e+06 5.08872e+07 8.07484e+07 -2.69773e+08)
(6.74486e+07 -2.82291e+06 -2.98595e+06 6.1574e+07 7.27006e+07 -2.33335e+08)
(6.01782e+07 -2.27775e+06 -4.71513e+06 6.89603e+07 5.72233e+07 -2.61519e+08)
(5.3355e+07 -932626 -7.20188e+06 6.64067e+07 5.18363e+07 -2.75942e+08)
(6.13941e+07 1.72317e+06 -1.47546e+07 7.83348e+07 4.04821e+07 -2.59522e+08)
(5.35715e+07 2.82694e+06 -2.27577e+07 6.39437e+07 4.79521e+07 -2.6773e+08)
(4.57634e+07 57540.7 -3.34467e+07 5.6169e+07 6.15351e+07 -2.68176e+08)
(5.42391e+07 -382509 -6.58351e+07 6.54376e+07 5.81012e+07 -2.27867e+08)
(2.29858e+07 -1.45756e+06 -1.1189e+08 4.72176e+07 6.36248e+07 -2.97239e+08)
(-9.91111e+06 -687007 -1.53524e+08 3.01931e+07 5.84431e+07 -3.38501e+08)
(4.94988e+07 -2.18498e+06 -1.30172e+08 1.16753e+08 8.489e+07 -9.58076e+07)
(5.59546e+07 -1.70029e+06 7.79521e+07 1.01582e+08 4.04845e+07 -1.36391e+08)
(2.7932e+07 -855481 1.17839e+08 4.62404e+07 4.53336e+07 -2.937e+08)
(4.85796e+07 1.60293e+06 9.12456e+07 6.71512e+07 4.0734e+07 -2.54856e+08)
(4.58932e+07 1.97293e+06 5.36118e+07 6.36449e+07 5.83055e+07 -2.63056e+08)
(6.25935e+07 320072 2.99761e+07 5.63933e+07 6.91072e+07 -2.21602e+08)
(5.43257e+07 1.3329e+06 1.90858e+07 5.442e+07 6.95251e+07 -2.57947e+08)
(4.62804e+07 -825206 1.43249e+07 5.07282e+07 8.15076e+07 -2.84696e+08)
(4.96917e+07 -3.68518e+06 1.19314e+07 5.22673e+07 6.73131e+07 -2.75812e+08)
(6.12847e+07 -370749 7.55183e+06 6.72573e+07 5.2488e+07 -2.53201e+08)
(4.93204e+07 2.97638e+06 2.85444e+06 4.76314e+07 6.74341e+07 -2.72951e+08)
(5.68367e+07 786017 901282 4.87106e+07 8.12109e+07 -2.54148e+08)
(5.55211e+07 570776 1.32166e+06 4.60105e+07 7.38121e+07 -2.56292e+08)
(5.1701e+07 -320154 463733 5.03514e+07 8.54203e+07 -2.73219e+08)
(4.64281e+07 -1.50932e+06 2.80773e+06 4.60087e+07 7.40065e+07 -2.86976e+08)
(7.20117e+07 259208 5.03448e+06 5.63663e+07 7.29938e+07 -2.11818e+08)
(7.22533e+07 -979052 -3.34962e+06 5.66036e+07 7.21104e+07 -2.12607e+08)
(4.69396e+07 -1.11478e+06 1.12927e+06 4.79255e+07 6.7874e+07 -2.86192e+08)
(6.93322e+07 729260 -377428 6.53105e+07 6.17828e+07 -2.28177e+08)
(4.61434e+07 2.12523e+06 -5.23024e+06 4.10502e+07 7.31825e+07 -2.79365e+08)
(5.70241e+07 -775539 -2.62686e+06 4.85883e+07 8.10685e+07 -2.55246e+08)
(5.91968e+07 -2.49461e+06 -3.80691e+06 5.21766e+07 6.51335e+07 -2.49759e+08)
(6.07646e+07 -863151 -4.78869e+06 6.23515e+07 5.81947e+07 -2.53901e+08)
(5.27775e+07 -889516 -6.95952e+06 5.85786e+07 5.66372e+07 -2.71234e+08)
(6.22386e+07 727794 -1.32807e+07 7.11031e+07 4.52424e+07 -2.50239e+08)
(5.57078e+07 2.54974e+06 -2.16473e+07 6.25365e+07 5.04527e+07 -2.5794e+08)
(4.90818e+07 11615.8 -3.43155e+07 5.4337e+07 6.50099e+07 -2.5518e+08)
(4.46081e+07 749364 -6.56291e+07 5.4574e+07 5.64153e+07 -2.47302e+08)
(2.22565e+07 429089 -1.11825e+08 4.36079e+07 6.85868e+07 -2.93494e+08)
(-1.59174e+07 -1.75817e+06 -1.56966e+08 1.69124e+07 6.43877e+07 -3.37722e+08)
(4.92983e+07 -1.02115e+06 -1.3587e+08 1.14238e+08 8.81734e+07 -8.59269e+07)
(5.39772e+07 -3.97e+06 7.40231e+07 9.45484e+07 4.30297e+07 -1.4942e+08)
(2.68758e+07 -736904 1.1704e+08 3.95516e+07 4.88485e+07 -2.96344e+08)
(4.36061e+07 1.39072e+06 9.21595e+07 5.88379e+07 4.59872e+07 -2.62437e+08)
(4.68072e+07 547675 5.29712e+07 5.37619e+07 6.23299e+07 -2.49166e+08)
(5.11124e+07 -78029.9 2.88192e+07 4.49603e+07 5.86587e+07 -2.47172e+08)
(5.05197e+07 3.00173e+06 2.04613e+07 4.65954e+07 6.66553e+07 -2.62357e+08)
(4.59155e+07 -270192 1.3988e+07 4.37308e+07 8.47314e+07 -2.76792e+08)
(4.63138e+07 -4.00273e+06 9.87947e+06 4.36339e+07 6.68026e+07 -2.77592e+08)
(5.57785e+07 -839860 6.8049e+06 5.64598e+07 5.36243e+07 -2.61571e+08)
(4.65075e+07 1.96057e+06 4.03243e+06 4.02924e+07 6.37197e+07 -2.74907e+08)
(6.64751e+07 725710 862544 4.85287e+07 7.28449e+07 -2.23541e+08)
(4.81782e+07 1.37514e+06 1.87699e+06 3.94042e+07 6.99271e+07 -2.72675e+08)
(6.08588e+07 134806 935058 4.89085e+07 8.34002e+07 -2.41912e+08)
(4.36709e+07 -3.03318e+06 1.19257e+06 3.63956e+07 7.13616e+07 -2.85621e+08)
(6.79421e+07 -1.71057e+06 4.41589e+06 5.04463e+07 5.74762e+07 -2.19607e+08)
(6.81092e+07 980745 -2.97765e+06 5.07779e+07 5.67672e+07 -2.19756e+08)
(4.44097e+07 272285 697510 3.89037e+07 6.59942e+07 -2.85015e+08)
(5.56803e+07 232917 -495735 4.97016e+07 6.06861e+07 -2.56298e+08)
(4.38974e+07 1.56341e+06 -3.61598e+06 3.45853e+07 6.81878e+07 -2.79687e+08)
(6.65254e+07 -565344 -3.04961e+06 4.84411e+07 7.27575e+07 -2.23981e+08)
(5.07275e+07 -1.47749e+06 -4.92569e+06 4.51269e+07 6.23888e+07 -2.69569e+08)
(5.53681e+07 -251540 -4.25173e+06 5.31751e+07 5.75964e+07 -2.62246e+08)
(4.92129e+07 -791760 -6.89483e+06 4.95193e+07 5.75716e+07 -2.73698e+08)
(5.65971e+07 253098 -1.26592e+07 6.04895e+07 4.77036e+07 -2.58015e+08)
(5.04679e+07 1.713e+06 -2.02187e+07 5.52955e+07 5.28951e+07 -2.66262e+08)
(5.71189e+07 -119515 -3.45987e+07 5.37695e+07 6.08377e+07 -2.29354e+08)
(4.33509e+07 2.19359e+06 -6.451e+07 5.19702e+07 5.47833e+07 -2.4919e+08)
(2.0894e+07 1.27857e+06 -1.1083e+08 3.60328e+07 7.32867e+07 -2.86429e+08)
(-2.19866e+07 -2.37251e+06 -1.6197e+08 3.36986e+06 6.54978e+07 -3.39565e+08)
(5.05116e+07 752459 -1.3815e+08 1.07973e+08 8.99739e+07 -7.28316e+07)
(5.40033e+07 -5.20627e+06 6.66502e+07 8.66122e+07 4.4812e+07 -1.57466e+08)
(2.66097e+07 -1.02596e+06 1.16785e+08 3.19492e+07 4.93281e+07 -2.98798e+08)
(3.90613e+07 389035 9.27352e+07 4.85434e+07 4.9306e+07 -2.66583e+08)
(5.40788e+07 -82992.3 5.16748e+07 4.88465e+07 5.4947e+07 -2.20687e+08)
(4.10807e+07 518073 2.76628e+07 3.79312e+07 5.36926e+07 -2.7336e+08)
(4.55174e+07 3.1249e+06 2.28398e+07 3.82515e+07 6.2077e+07 -2.70144e+08)
(5.40064e+07 60863.3 1.40407e+07 4.0813e+07 7.94796e+07 -2.45876e+08)
(4.24839e+07 -3.53251e+06 7.49701e+06 3.51051e+07 6.29269e+07 -2.80454e+08)
(4.93213e+07 -1.05313e+06 5.77144e+06 4.57529e+07 5.25656e+07 -2.72631e+08)
(4.35829e+07 319988 4.16349e+06 3.47054e+07 5.82774e+07 -2.7923e+08)
(5.9727e+07 727679 1.12969e+06 4.06494e+07 5.58462e+07 -2.37322e+08)
(4.3841e+07 1.84032e+06 3.16704e+06 3.26976e+07 6.50049e+07 -2.7952e+08)
(6.02263e+07 139696 1.3169e+06 3.94568e+07 7.09998e+07 -2.32468e+08)
(4.13287e+07 -2.80943e+06 -1.14821e+06 2.97157e+07 6.49878e+07 -2.85057e+08)
(4.72621e+07 -2.37587e+06 2.327e+06 3.68968e+07 4.78884e+07 -2.72798e+08)
(4.73544e+07 1.74607e+06 -1.17731e+06 3.72592e+07 4.7274e+07 -2.72605e+08)
(4.21581e+07 823900 1.78805e+06 3.26149e+07 6.07578e+07 -2.84809e+08)
(5.75256e+07 -44321.2 -784720 4.50427e+07 5.61527e+07 -2.45636e+08)
(4.19321e+07 335585 -3.38561e+06 3.01029e+07 6.12347e+07 -2.81404e+08)
(5.9672e+07 -119349 -3.13391e+06 4.05625e+07 5.57297e+07 -2.3734e+08)
(4.48743e+07 191723 -4.77897e+06 3.77109e+07 5.96554e+07 -2.80774e+08)
(4.88249e+07 -67804.4 -3.69765e+06 4.35258e+07 5.5499e+07 -2.72977e+08)
(4.48935e+07 -704262 -6.92604e+06 4.07773e+07 5.54019e+07 -2.78458e+08)
(4.96744e+07 175549 -1.23092e+07 4.91284e+07 4.78686e+07 -2.68589e+08)
(4.49266e+07 438289 -1.98976e+07 4.58455e+07 5.44657e+07 -2.73527e+08)
(4.88599e+07 -318000 -3.51912e+07 4.4914e+07 4.96281e+07 -2.47526e+08)
(2.83347e+07 2.96669e+06 -6.16374e+07 3.62319e+07 5.28092e+07 -2.81372e+08)
(2.82295e+07 1.05247e+06 -1.09066e+08 3.30225e+07 6.94546e+07 -2.5593e+08)
(-2.63315e+07 -2.05783e+06 -1.6744e+08 -8.11307e+06 6.05332e+07 -3.40461e+08)
(5.67787e+07 920857 -1.3569e+08 1.04948e+08 8.28346e+07 -4.16234e+07)
(5.62161e+07 -4.76351e+06 5.88376e+07 7.85016e+07 4.23928e+07 -1.53822e+08)
(2.67707e+07 -1.51931e+06 1.15076e+08 2.4587e+07 4.58345e+07 -3.00141e+08)
(3.90572e+07 -1.03763e+06 9.2217e+07 3.88703e+07 4.7095e+07 -2.57843e+08)
(4.74025e+07 174609 5.06887e+07 3.98855e+07 3.84506e+07 -2.33028e+08)
(3.34837e+07 1.78641e+06 2.78956e+07 3.11236e+07 5.0089e+07 -2.91751e+08)
(4.00248e+07 1.82703e+06 2.46628e+07 3.01604e+07 5.53253e+07 -2.79186e+08)
(5.45564e+07 167291 1.43251e+07 3.31429e+07 6.45086e+07 -2.34379e+08)
(3.81398e+07 -2.21941e+06 5.68293e+06 2.69796e+07 5.60337e+07 -2.85179e+08)
(4.36371e+07 -928832 4.76184e+06 3.6274e+07 4.90368e+07 -2.81663e+08)
(4.01472e+07 -377106 3.29599e+06 2.97219e+07 5.17275e+07 -2.85724e+08)
(3.82282e+07 535111 1.37346e+06 2.82279e+07 4.51697e+07 -2.93212e+08)
(3.89287e+07 1.00153e+06 4.72794e+06 2.57016e+07 5.72346e+07 -2.87866e+08)
(5.53162e+07 58698.3 1.53339e+06 3.22978e+07 5.39914e+07 -2.39083e+08)
(3.83344e+07 -1.17249e+06 -2.55576e+06 2.466e+07 5.6505e+07 -2.88302e+08)
(3.62509e+07 -1.67019e+06 683268 3.02002e+07 4.63464e+07 -3.02092e+08)
(3.62728e+07 1.20819e+06 239498 3.05742e+07 4.58395e+07 -3.01672e+08)
(3.92972e+07 -297729 2.26107e+06 2.7694e+07 5.35478e+07 -2.87919e+08)
(5.14554e+07 -153668 -1.07001e+06 3.65664e+07 4.28911e+07 -2.55899e+08)
(3.87549e+07 534400 -3.74859e+06 2.60097e+07 5.30335e+07 -2.87479e+08)
(3.81352e+07 227753 -2.93358e+06 2.81187e+07 4.50143e+07 -2.92859e+08)
(3.97715e+07 843405 -3.42337e+06 3.0226e+07 5.46315e+07 -2.89428e+08)
(4.31127e+07 -64972.8 -3.18943e+06 3.4681e+07 5.12001e+07 -2.81277e+08)
(4.06753e+07 -660125 -7.05223e+06 3.26778e+07 5.06932e+07 -2.83412e+08)
(4.36423e+07 72618 -1.20035e+07 3.87147e+07 4.49458e+07 -2.76986e+08)
(4.3529e+07 285653 -2.04466e+07 3.62277e+07 5.19401e+07 -2.67916e+08)
(2.858e+07 -21657.9 -3.56469e+07 3.0681e+07 4.57252e+07 -2.98134e+08)
(2.28509e+07 1.61848e+06 -5.90921e+07 2.68293e+07 5.18262e+07 -2.89481e+08)
(2.756e+07 -51375 -1.08748e+08 2.52962e+07 5.60773e+07 -2.46796e+08)
(-3.01914e+07 -1.00375e+06 -1.70839e+08 -1.59089e+07 5.11586e+07 -3.42596e+08)
(5.96764e+07 -438235 -1.36933e+08 1.0049e+08 6.74094e+07 -2.21788e+07)
(5.99009e+07 -2.7152e+06 5.21357e+07 7.562e+07 3.17519e+07 -1.42761e+08)
(2.636e+07 -1.53541e+06 1.12237e+08 1.8754e+07 3.87539e+07 -3.02194e+08)
(4.45977e+07 -1.45611e+06 9.07544e+07 3.74952e+07 3.50717e+07 -2.40839e+08)
(2.67482e+07 1.40064e+06 5.06043e+07 2.75288e+07 2.79568e+07 -2.86762e+08)
(2.72138e+07 2.14764e+06 2.94462e+07 2.48313e+07 4.66727e+07 -3.05384e+08)
(3.44941e+07 -135508 2.52895e+07 2.31314e+07 4.71445e+07 -2.88812e+08)
(5.14941e+07 27130.5 1.46645e+07 2.84608e+07 4.58512e+07 -2.38362e+08)
(3.36571e+07 -668651 4.77268e+06 1.98147e+07 4.7013e+07 -2.91442e+08)
(3.92463e+07 -528277 4.00149e+06 2.85798e+07 4.30991e+07 -2.88033e+08)
(3.69055e+07 225178 2.74847e+06 2.52722e+07 4.46332e+07 -2.91879e+08)
(2.58725e+07 312159 1.41279e+06 2.33571e+07 4.44811e+07 -3.2723e+08)
(3.3739e+07 -950302 4.89114e+06 1.98693e+07 4.86526e+07 -2.9829e+08)
(4.64348e+07 -46826.3 1.62882e+06 2.83401e+07 3.74831e+07 -2.62746e+08)
(3.51963e+07 468719 -2.5567e+06 2.0833e+07 4.75313e+07 -2.93715e+08)
(3.27643e+07 -793254 -4634.39 2.44401e+07 4.43553e+07 -3.07721e+08)
(3.27549e+07 505028 807484 2.48124e+07 4.39252e+07 -3.07023e+08)
(3.62899e+07 -1.07363e+06 1.45805e+06 2.36744e+07 4.57485e+07 -2.92771e+08)
(3.33034e+07 -154383 -1.2932e+06 2.46165e+07 3.32123e+07 -3.01442e+08)
(3.50969e+07 1.39726e+06 -3.155e+06 2.22495e+07 4.49778e+07 -2.95434e+08)
(2.57922e+07 365258 -2.62376e+06 2.3164e+07 4.41833e+07 -3.26531e+08)
(3.57449e+07 68589.5 -2.48813e+06 2.41425e+07 4.79896e+07 -2.95975e+08)
(3.87573e+07 -274061 -2.7827e+06 2.73645e+07 4.45359e+07 -2.86994e+08)
(3.70306e+07 -634322 -7.27346e+06 2.55479e+07 4.35672e+07 -2.87438e+08)
(3.87303e+07 -577154 -1.1983e+07 3.01538e+07 3.90102e+07 -2.84132e+08)
(4.87882e+07 1.10581e+06 -2.01356e+07 3.4556e+07 3.99509e+07 -2.49875e+08)
(2.35491e+07 541485 -3.57037e+07 2.36096e+07 4.78385e+07 -3.06788e+08)
(2.69253e+07 -669550 -5.89456e+07 2.57409e+07 4.3604e+07 -2.75257e+08)
(2.29478e+07 -522380 -1.09716e+08 2.07156e+07 3.99313e+07 -2.55422e+08)
(-3.36443e+07 -61415.6 -1.71982e+08 -1.94929e+07 4.05572e+07 -3.46718e+08)
(6.0313e+07 -1.16184e+06 -1.40629e+08 9.98466e+07 4.71809e+07 -1.32147e+07)
(5.31628e+07 -838939 5.15347e+07 6.57154e+07 1.9591e+07 -1.7284e+08)
(2.5097e+07 -959266 1.10376e+08 1.51633e+07 3.00522e+07 -3.05297e+08)
(3.10444e+07 -574497 8.9564e+07 2.61143e+07 2.20655e+07 -2.73856e+08)
(1.52757e+07 2.56958e+06 5.20118e+07 2.28043e+07 2.76673e+07 -3.19153e+08)
(2.44068e+07 1.18716e+06 3.0664e+07 2.00339e+07 4.34269e+07 -3.08022e+08)
(3.07575e+07 -1.99593e+06 2.42028e+07 1.83617e+07 3.81873e+07 -2.95078e+08)
(4.29396e+07 -312719 1.4727e+07 2.46125e+07 2.86976e+07 -2.61829e+08)
(3.09792e+07 540906 4.95956e+06 1.58148e+07 3.61133e+07 -2.95644e+08)
(3.63626e+07 9769.56 3.66469e+06 2.30844e+07 3.51488e+07 -2.91708e+08)
(3.44354e+07 1.35496e+06 2.96682e+06 2.12824e+07 3.6857e+07 -2.95747e+08)
(2.17063e+07 194945 1.33622e+06 1.90523e+07 4.6779e+07 -3.34932e+08)
(3.03849e+07 -2.36658e+06 3.31242e+06 1.56694e+07 4.01872e+07 -3.04621e+08)
(2.91808e+07 -150415 1.62691e+06 1.84419e+07 2.93569e+07 -3.08014e+08)
(3.33221e+07 877733 -1.59761e+06 1.83498e+07 3.84763e+07 -2.96869e+08)
(3.2564e+07 -331355 -205333 1.98049e+07 3.83164e+07 -3.0348e+08)
(3.25529e+07 168678 972398 2.0083e+07 3.79267e+07 -3.02741e+08)
(3.40334e+07 -622539 600440 2.0203e+07 3.75553e+07 -2.96084e+08)
(2.41908e+07 -108363 -1.45357e+06 2.04607e+07 3.18011e+07 -3.26767e+08)
(3.24918e+07 1.75194e+06 -2.09681e+06 1.88642e+07 3.70834e+07 -3.00414e+08)
(2.15399e+07 332705 -2.39089e+06 1.86115e+07 4.6203e+07 -3.34537e+08)
(3.32462e+07 -1.29441e+06 -2.62586e+06 1.94512e+07 4.01596e+07 -2.98962e+08)
(3.58074e+07 -661898 -2.7069e+06 2.19717e+07 3.59215e+07 -2.90788e+08)
(3.43567e+07 -559739 -7.51531e+06 2.0674e+07 3.38292e+07 -2.90448e+08)
(3.50447e+07 -1.06341e+06 -1.29491e+07 2.40849e+07 3.11976e+07 -2.90339e+08)
(3.55816e+07 1.22949e+06 -1.89411e+07 2.25529e+07 2.58733e+07 -2.79969e+08)
(3.33149e+07 1.14135e+06 -3.51248e+07 2.42395e+07 4.0944e+07 -2.75608e+08)
(1.53995e+07 -1.54348e+06 -6.05385e+07 1.43109e+07 3.37998e+07 -2.99213e+08)
(1.35892e+07 -543458 -1.10226e+08 1.72445e+07 2.70948e+07 -2.81817e+08)
(-3.58773e+07 372899 -1.71773e+08 -1.9961e+07 3.09243e+07 -3.51337e+08)
(5.60575e+07 -559045 -1.43127e+08 9.92378e+07 2.73575e+07 -3.09959e+07)
(4.85158e+07 -501119 5.12123e+07 6.16744e+07 1.27699e+07 -1.9571e+08)
(2.42268e+07 -345897 1.09904e+08 1.34703e+07 2.13632e+07 -3.07961e+08)
(2.32364e+07 756718 8.92605e+07 2.2187e+07 1.61189e+07 -2.95994e+08)
(1.30582e+07 2.5815e+06 5.38025e+07 1.88507e+07 3.00655e+07 -3.22339e+08)
(2.73601e+07 -220407 3.07561e+07 1.66675e+07 3.71365e+07 -2.93186e+08)
(2.8855e+07 -2.59858e+06 2.18583e+07 1.55931e+07 2.84318e+07 -2.97932e+08)
(2.86845e+07 -561019 1.42288e+07 1.57585e+07 1.8657e+07 -2.991e+08)
(2.99408e+07 787301 5.75525e+06 1.50293e+07 2.50199e+07 -2.9846e+08)
(3.4711e+07 386125 3.97369e+06 1.97351e+07 2.57636e+07 -2.93797e+08)
(3.28446e+07 2.29303e+06 4.06652e+06 1.78068e+07 2.7995e+07 -2.97071e+08)
(2.64321e+07 140831 1.25863e+06 1.51242e+07 4.61116e+07 -3.14467e+08)
(2.9304e+07 -2.72279e+06 1.31817e+06 1.25072e+07 3.0875e+07 -3.04863e+08)
(2.69738e+07 -171209 1.56569e+06 1.53606e+07 2.67834e+07 -3.13182e+08)
(3.23155e+07 296126 -1.16024e+06 1.62707e+07 2.89194e+07 -2.97838e+08)
(3.30263e+07 -238256 -344821 1.66425e+07 2.88832e+07 -2.98775e+08)
(3.31059e+07 109012 1.13084e+06 1.68374e+07 2.84908e+07 -2.97845e+08)
(3.22008e+07 397439 460633 1.63854e+07 2.84508e+07 -2.97802e+08)
(2.32963e+07 -60527.9 -1.58606e+06 1.6842e+07 3.22694e+07 -3.26632e+08)
(3.10468e+07 1.58103e+06 -979960 1.53948e+07 2.83863e+07 -3.01602e+08)
(2.59451e+07 235388 -2.28454e+06 1.43558e+07 4.52144e+07 -3.15121e+08)
(3.23403e+07 -2.41447e+06 -3.97615e+06 1.59198e+07 3.08509e+07 -2.97924e+08)
(3.4042e+07 -912319 -3.24566e+06 1.85141e+07 2.60123e+07 -2.93478e+08)
(3.26926e+07 -417094 -7.69515e+06 1.85522e+07 2.33636e+07 -2.93376e+08)
(3.2675e+07 -809636 -1.36313e+07 2.04958e+07 2.25118e+07 -2.94647e+08)
(2.7936e+07 586563 -1.83509e+07 1.86542e+07 1.77251e+07 -3.00999e+08)
(3.12949e+07 1.36245e+06 -3.39748e+07 1.97489e+07 2.58903e+07 -2.76504e+08)
(1.36081e+07 -632783 -6.15516e+07 1.11133e+07 2.73495e+07 -3.00646e+08)
(1.05409e+06 -680272 -1.10747e+08 8.19197e+06 2.24353e+07 -3.12997e+08)
(-3.64642e+07 439039 -1.71044e+08 -1.95672e+07 2.32698e+07 -3.54642e+08)
(4.8262e+07 758367 -1.43558e+08 9.46229e+07 1.59133e+07 -6.82282e+07)
(4.65131e+07 -830283 5.01634e+07 5.86896e+07 7.65738e+06 -2.06489e+08)
(2.4023e+07 83487 1.0917e+08 1.23533e+07 1.27514e+07 -3.09842e+08)
(2.15591e+07 1.56664e+06 9.03243e+07 1.96695e+07 1.13645e+07 -2.9987e+08)
(1.98543e+07 1.51824e+06 5.53001e+07 1.53926e+07 2.76951e+07 -2.96723e+08)
(3.68158e+07 -1.08708e+06 2.97567e+07 2.10203e+07 2.27593e+07 -2.66101e+08)
(2.74636e+07 -1.8793e+06 2.00118e+07 1.38458e+07 1.8132e+07 -3.00691e+08)
(3.11341e+07 -533179 1.36941e+07 2.10069e+07 1.04019e+07 -2.97976e+08)
(3.02008e+07 629041 6.09037e+06 1.62188e+07 1.52119e+07 -2.99359e+08)