/*--------------------------------*- C++ -*----------------------------------*\
| =========                 |                                                 |
| \\      /  F ield         | OpenFOAM: The Open Source CFD Toolbox           |
|  \\    /   O peration     | Version:  2106                                  |
|   \\  /    A nd           | Website:  www.openfoam.com                      |
|    \\/     M anipulation  |                                                 |
\*---------------------------------------------------------------------------*/
FoamFile
{
    version     2.0;
    format      ascii;
    arch        "LSB;label=32;scalar=64";
    class       volVectorField;
    location    "765";
    object      D;
}
// * * * * * * * * * * * * * * * * * * * * * * * * * * * * * * * * * * * * * //

dimensions      [0 1 0 0 0 0 0];

internalField   nonuniform List<vector> 
9000
(
(1.14009e-05 2.08534e-05 3.13272e-06)
(1.32491e-06 2.19596e-05 8.18188e-08)
(2.18778e-07 2.33117e-05 1.22925e-06)
(3.87028e-08 2.36142e-05 1.44265e-06)
(4.72673e-09 2.36231e-05 1.44571e-06)
(1.8113e-09 2.35883e-05 1.42371e-06)
(2.13882e-09 2.36076e-05 1.43561e-06)
(9.37525e-10 2.35875e-05 1.42351e-06)
(2.17422e-09 2.35869e-05 1.42306e-06)
(3.23784e-10 2.36141e-05 1.44046e-06)
(-2.19507e-09 2.35985e-05 1.42891e-06)
(1.93803e-09 2.3571e-05 1.41071e-06)
(3.04063e-09 2.36102e-05 1.43809e-06)
(-1.12469e-09 2.36111e-05 1.43828e-06)
(1.35844e-10 2.36022e-05 1.43086e-06)
(1.15826e-09 2.36152e-05 1.44092e-06)
(-1.61962e-09 2.36108e-05 1.43808e-06)
(-2.88076e-10 2.36028e-05 1.43129e-06)
(-1.61703e-09 2.36118e-05 1.4391e-06)
(-1.73427e-09 2.3573e-05 1.41249e-06)
(1.48273e-09 2.35844e-05 1.42139e-06)
(1.05922e-10 2.36127e-05 1.43951e-06)
(-2.30841e-09 2.36151e-05 1.44109e-06)
(-2.21475e-09 2.35897e-05 1.42485e-06)
(-2.23674e-09 2.36104e-05 1.43833e-06)
(-7.38423e-09 2.35977e-05 1.42944e-06)
(-3.81534e-08 2.35956e-05 1.42938e-06)
(-2.17062e-07 2.33053e-05 1.22527e-06)
(-1.32476e-06 2.19591e-05 8.15498e-08)
(-1.14011e-05 2.08522e-05 3.13218e-06)
(1.10743e-05 1.2564e-05 -5.8469e-06)
(1.22252e-06 1.31887e-05 -9.25912e-06)
(1.42811e-07 1.40062e-05 -8.68762e-06)
(2.10459e-08 1.42108e-05 -8.60732e-06)
(5.19361e-09 1.42168e-05 -8.60819e-06)
(2.81311e-09 1.41993e-05 -8.60652e-06)
(2.21651e-09 1.42058e-05 -8.60992e-06)
(1.43014e-09 1.41996e-05 -8.6057e-06)
(1.23615e-09 1.41991e-05 -8.60597e-06)
(9.31916e-10 1.42096e-05 -8.60942e-06)
(4.37385e-10 1.42062e-05 -8.60728e-06)
(6.23429e-10 1.41956e-05 -8.60353e-06)
(4.89709e-10 1.42065e-05 -8.6098e-06)
(-1.01404e-10 1.42054e-05 -8.60886e-06)
(-4.24071e-11 1.42088e-05 -8.60723e-06)
(-2.16818e-11 1.42105e-05 -8.60937e-06)
(-2.95006e-10 1.42053e-05 -8.60889e-06)
(-1.83283e-10 1.42091e-05 -8.60718e-06)
(-4.12781e-10 1.42082e-05 -8.60949e-06)
(-6.93248e-10 1.41969e-05 -8.60349e-06)
(-9.40383e-10 1.41976e-05 -8.60546e-06)
(-1.22095e-09 1.4208e-05 -8.61013e-06)
(-1.56756e-09 1.42104e-05 -8.60937e-06)
(-1.95617e-09 1.42006e-05 -8.60581e-06)
(-2.60301e-09 1.42063e-05 -8.61017e-06)
(-5.39271e-09 1.42075e-05 -8.60441e-06)
(-2.10775e-08 1.42053e-05 -8.60521e-06)
(-1.42851e-07 1.39996e-05 -8.68765e-06)
(-1.22265e-06 1.31884e-05 -9.2591e-06)
(-1.10744e-05 1.25628e-05 -5.84716e-06)
(1.11452e-05 7.77717e-06 -7.41057e-06)
(1.21848e-06 8.20002e-06 -1.09328e-05)
(1.29731e-07 8.74719e-06 -1.04557e-05)
(1.55016e-08 8.8942e-06 -1.04013e-05)
(5.33864e-09 8.90013e-06 -1.04033e-05)
(3.15371e-09 8.89469e-06 -1.04005e-05)
(2.22947e-09 8.89171e-06 -1.04036e-05)
(1.8197e-09 8.89701e-06 -1.04005e-05)
(7.13082e-10 8.89633e-06 -1.04008e-05)
(8.21137e-10 8.89482e-06 -1.04035e-05)
(1.50313e-09 8.89236e-06 -1.04027e-05)
(3.16751e-10 8.89427e-06 -1.03991e-05)
(-7.87759e-10 8.89121e-06 -1.04021e-05)
(8.7059e-11 8.8951e-06 -1.04018e-05)
(1.2006e-10 8.89441e-06 -1.04029e-05)
(-5.4237e-10 8.89552e-06 -1.04036e-05)
(3.72224e-11 8.89509e-06 -1.04019e-05)
(1.52212e-10 8.89443e-06 -1.04029e-05)
(2.35955e-10 8.89395e-06 -1.04032e-05)
(-1.26668e-10 8.89522e-06 -1.03996e-05)
(-1.84206e-09 8.89592e-06 -1.03997e-05)
(-1.94803e-09 8.89211e-06 -1.04031e-05)
(-1.12042e-09 8.89554e-06 -1.04036e-05)
(-1.86104e-09 8.89688e-06 -1.04011e-05)
(-2.69255e-09 8.89065e-06 -1.04032e-05)
(-4.53174e-09 8.90253e-06 -1.04001e-05)
(-1.61666e-08 8.89048e-06 -1.04001e-05)
(-1.3038e-07 8.74563e-06 -1.04539e-05)
(-1.21852e-06 8.19982e-06 -1.09326e-05)
(-1.1145e-05 7.77555e-06 -7.41104e-06)
(1.15308e-05 4.89019e-06 -7.09792e-06)
(1.2609e-06 5.15978e-06 -1.0743e-05)
(1.42516e-07 5.5574e-06 -1.02383e-05)
(1.66521e-08 5.66388e-06 -1.018e-05)
(4.85886e-09 5.66961e-06 -1.01823e-05)
(3.12157e-09 5.66624e-06 -1.01821e-05)
(2.33471e-09 5.66252e-06 -1.01824e-05)
(1.70181e-09 5.66732e-06 -1.01835e-05)
(9.11052e-10 5.66569e-06 -1.01827e-05)
(9.83992e-10 5.66608e-06 -1.01823e-05)
(1.40709e-09 5.66421e-06 -1.01823e-05)
(1.34182e-10 5.6653e-06 -1.01824e-05)
(-5.9382e-10 5.66566e-06 -1.01811e-05)
(2.84479e-10 5.671e-06 -1.01821e-05)
(1.19497e-11 5.66615e-06 -1.01822e-05)
(-4.42477e-10 5.6667e-06 -1.01825e-05)
(4.64423e-11 5.67096e-06 -1.01823e-05)
(1.20205e-10 5.66613e-06 -1.01822e-05)
(5.25312e-11 5.66546e-06 -1.01816e-05)
(-3.387e-10 5.66614e-06 -1.01831e-05)
(-1.79068e-09 5.6666e-06 -1.01826e-05)
(-1.82413e-09 5.66572e-06 -1.01815e-05)
(-1.16192e-09 5.66684e-06 -1.01825e-05)
(-2.03748e-09 5.66584e-06 -1.01834e-05)
(-2.65409e-09 5.66344e-06 -1.01812e-05)
(-4.1221e-09 5.67097e-06 -1.01828e-05)
(-1.69959e-08 5.66141e-06 -1.01794e-05)
(-1.43187e-07 5.56055e-06 -1.02373e-05)
(-1.26116e-06 5.15972e-06 -1.07428e-05)
(-1.15302e-05 4.88775e-06 -7.09772e-06)
(1.20057e-05 3.08833e-06 -6.68528e-06)
(1.31977e-06 3.23566e-06 -1.04719e-05)
(1.609e-07 3.53283e-06 -9.93139e-06)
(1.98482e-08 3.6101e-06 -9.86562e-06)
(4.66382e-09 3.6148e-06 -9.86755e-06)
(2.76987e-09 3.61725e-06 -9.86871e-06)
(2.35056e-09 3.61104e-06 -9.86823e-06)
(1.5959e-09 3.61405e-06 -9.86904e-06)
(1.09267e-09 3.61413e-06 -9.86856e-06)
(1.20654e-09 3.61289e-06 -9.868e-06)
(1.13082e-09 3.6111e-06 -9.86793e-06)
(2.27735e-10 3.6124e-06 -9.86838e-06)
(-3.43963e-10 3.61536e-06 -9.86859e-06)
(2.63553e-10 3.61644e-06 -9.86939e-06)
(5.33756e-11 3.61343e-06 -9.86813e-06)
(-4.09996e-10 3.61341e-06 -9.8685e-06)
(-1.0237e-11 3.61634e-06 -9.8695e-06)
(1.23035e-10 3.61341e-06 -9.86814e-06)
(-1.84175e-10 3.61244e-06 -9.86737e-06)
(-5.53036e-10 3.61311e-06 -9.86886e-06)
(-1.45829e-09 3.61357e-06 -9.86843e-06)
(-1.57502e-09 3.61481e-06 -9.86807e-06)
(-1.48096e-09 3.61392e-06 -9.86835e-06)
(-2.20532e-09 3.61402e-06 -9.86894e-06)
(-2.42126e-09 3.61409e-06 -9.86815e-06)
(-4.07392e-09 3.61619e-06 -9.86821e-06)
(-2.01352e-08 3.60821e-06 -9.8653e-06)
(-1.6138e-07 3.53447e-06 -9.93218e-06)
(-1.32012e-06 3.23566e-06 -1.04717e-05)
(-1.20042e-05 3.08797e-06 -6.68502e-06)
(1.24203e-05 1.94914e-06 -6.45409e-06)
(1.37754e-06 2.01605e-06 -1.03624e-05)
(1.77626e-07 2.23316e-06 -9.79613e-06)
(2.32761e-08 2.29229e-06 -9.72609e-06)
(4.86697e-09 2.29788e-06 -9.72806e-06)
(2.61268e-09 2.3004e-06 -9.73019e-06)
(2.21724e-09 2.2966e-06 -9.72911e-06)
(1.67785e-09 2.29639e-06 -9.72913e-06)
(1.10134e-09 2.29826e-06 -9.7294e-06)
(1.0028e-09 2.29478e-06 -9.72864e-06)
(9.52487e-10 2.29533e-06 -9.72876e-06)
(3.39366e-10 2.29432e-06 -9.72837e-06)
(-9.02247e-11 2.29604e-06 -9.72985e-06)
(3.47351e-10 2.29776e-06 -9.72936e-06)
(4.74553e-11 2.29589e-06 -9.72869e-06)
(-3.46201e-10 2.29507e-06 -9.72874e-06)
(-4.26544e-11 2.29764e-06 -9.7294e-06)
(-1.96365e-11 2.29592e-06 -9.72874e-06)
(-3.44112e-10 2.29422e-06 -9.7281e-06)
(-5.91979e-10 2.29532e-06 -9.72914e-06)
(-1.39932e-09 2.29571e-06 -9.72866e-06)
(-1.39435e-09 2.29773e-06 -9.72979e-06)
(-1.30946e-09 2.29636e-06 -9.72896e-06)
(-2.33607e-09 2.29741e-06 -9.72891e-06)
(-2.42257e-09 2.29813e-06 -9.73023e-06)
(-4.22526e-09 2.29727e-06 -9.72834e-06)
(-2.37003e-08 2.29004e-06 -9.72518e-06)
(-1.7791e-07 2.23404e-06 -9.79686e-06)
(-1.37769e-06 2.01608e-06 -1.03621e-05)
(-1.24185e-05 1.95096e-06 -6.45426e-06)
(1.27245e-05 1.2283e-06 -6.34378e-06)
(1.42542e-06 1.25134e-06 -1.03402e-05)
(1.90958e-07 1.40759e-06 -9.75746e-06)
(2.65665e-08 1.45111e-06 -9.68503e-06)
(5.14431e-09 1.45731e-06 -9.68684e-06)
(2.35704e-09 1.45743e-06 -9.68893e-06)
(2.12098e-09 1.45724e-06 -9.68871e-06)
(1.67195e-09 1.45492e-06 -9.68797e-06)
(9.69278e-10 1.456e-06 -9.68861e-06)
(1.02712e-09 1.45476e-06 -9.68815e-06)
(7.84199e-10 1.45573e-06 -9.68806e-06)
(1.21921e-10 1.45403e-06 -9.68805e-06)
(2.59369e-10 1.45463e-06 -9.68841e-06)
(5.20697e-10 1.45567e-06 -9.68794e-06)
(-8.65095e-11 1.45446e-06 -9.68773e-06)
(-2.63107e-10 1.45476e-06 -9.68798e-06)
(3.50559e-11 1.45556e-06 -9.68796e-06)
(-3.27881e-10 1.45452e-06 -9.68776e-06)
(-4.59495e-10 1.45387e-06 -9.6882e-06)
(-4.92751e-10 1.45333e-06 -9.68776e-06)
(-1.15156e-09 1.45339e-06 -9.68758e-06)
(-1.20354e-09 1.45716e-06 -9.68859e-06)
(-1.52628e-09 1.45495e-06 -9.68799e-06)
(-2.37818e-09 1.45624e-06 -9.68864e-06)
(-2.27974e-09 1.45747e-06 -9.68943e-06)
(-4.66128e-09 1.4546e-06 -9.68689e-06)
(-2.67885e-08 1.44979e-06 -9.68469e-06)
(-1.9102e-07 1.40809e-06 -9.75753e-06)
(-1.42557e-06 1.25137e-06 -1.03398e-05)
(-1.27232e-05 1.2296e-06 -6.34448e-06)
(1.29256e-05 7.73061e-07 -6.2883e-06)
(1.46122e-06 7.76243e-07 -1.03426e-05)
(2.01105e-07 8.86501e-07 -9.74942e-06)
(2.8878e-08 9.17288e-07 -9.67564e-06)
(5.41435e-09 9.21879e-07 -9.67765e-06)
(2.36141e-09 9.22103e-07 -9.67887e-06)
(2.00066e-09 9.23117e-07 -9.67948e-06)
(1.556e-09 9.20596e-07 -9.67859e-06)
(1.0645e-09 9.21185e-07 -9.67881e-06)
(1.0019e-09 9.21901e-07 -9.67874e-06)
(6.24593e-10 9.21114e-07 -9.67895e-06)
(9.08654e-11 9.20742e-07 -9.6788e-06)
(3.51014e-10 9.22351e-07 -9.67915e-06)
(5.22845e-10 9.21052e-07 -9.67846e-06)
(-1.14502e-11 9.20145e-07 -9.67849e-06)
(-1.82716e-10 9.21778e-07 -9.67861e-06)
(-9.72129e-11 9.20944e-07 -9.67848e-06)
(-4.01873e-10 9.20257e-07 -9.67845e-06)
(-6.22427e-10 9.20415e-07 -9.67902e-06)
(-7.28338e-10 9.20121e-07 -9.67879e-06)
(-8.82265e-10 9.1959e-07 -9.67883e-06)
(-9.07138e-10 9.21934e-07 -9.67916e-06)
(-1.47664e-09 9.20668e-07 -9.67865e-06)
(-2.30201e-09 9.22724e-07 -9.67914e-06)
(-2.45849e-09 9.24043e-07 -9.67996e-06)
(-5.03667e-09 9.20983e-07 -9.67778e-06)
(-2.88357e-08 9.16623e-07 -9.67589e-06)
(-2.01093e-07 8.86654e-07 -9.74919e-06)
(-1.46141e-06 7.76118e-07 -1.0342e-05)
(-1.29249e-05 7.73963e-07 -6.28871e-06)
(1.30501e-05 4.85804e-07 -6.2568e-06)
(1.48573e-06 4.82077e-07 -1.03471e-05)
(2.08691e-07 5.56997e-07 -9.74746e-06)
(3.06208e-08 5.79379e-07 -9.67276e-06)
(5.6355e-09 5.82716e-07 -9.67478e-06)
(2.39465e-09 5.83006e-07 -9.67572e-06)
(1.90387e-09 5.83577e-07 -9.67639e-06)
(1.49866e-09 5.82115e-07 -9.67574e-06)
(1.12273e-09 5.82441e-07 -9.67574e-06)
(9.69554e-10 5.82969e-07 -9.67571e-06)
(4.20875e-10 5.82436e-07 -9.67577e-06)
(2.47171e-10 5.8285e-07 -9.67646e-06)
(5.09179e-10 5.84336e-07 -9.67631e-06)
(3.28614e-10 5.82427e-07 -9.67559e-06)
(1.75738e-11 5.81553e-07 -9.67582e-06)
(-1.06719e-10 5.82804e-07 -9.67576e-06)
(-1.82371e-10 5.82339e-07 -9.67564e-06)
(-5.74462e-10 5.81809e-07 -9.67569e-06)
(-5.50034e-10 5.81999e-07 -9.67631e-06)
(-6.6068e-10 5.82715e-07 -9.67609e-06)
(-8.52288e-10 5.83241e-07 -9.67651e-06)
(-8.00925e-10 5.82929e-07 -9.67587e-06)
(-1.44454e-09 5.82215e-07 -9.67576e-06)
(-2.06551e-09 5.8346e-07 -9.67624e-06)
(-2.39911e-09 5.85258e-07 -9.67656e-06)
(-5.64411e-09 5.83419e-07 -9.6749e-06)
(-3.06527e-08 5.78771e-07 -9.67361e-06)
(-2.08496e-07 5.56932e-07 -9.7472e-06)
(-1.48588e-06 4.8179e-07 -1.03468e-05)
(-1.305e-05 4.86536e-07 -6.25689e-06)
(1.31243e-05 3.04274e-07 -6.23759e-06)
(1.50158e-06 2.99596e-07 -1.03495e-05)
(2.14213e-07 3.4939e-07 -9.7456e-06)
(3.19352e-08 3.65315e-07 -9.67069e-06)
(5.84018e-09 3.67549e-07 -9.67274e-06)
(2.43665e-09 3.67978e-07 -9.6736e-06)
(1.83792e-09 3.68299e-07 -9.67388e-06)
(1.44932e-09 3.67471e-07 -9.67369e-06)
(1.12659e-09 3.67663e-07 -9.67366e-06)
(9.4075e-10 3.67925e-07 -9.67343e-06)
(4.92631e-10 3.67684e-07 -9.67357e-06)
(3.41186e-10 3.68854e-07 -9.67407e-06)
(4.34353e-10 3.68833e-07 -9.67404e-06)
(1.67682e-10 3.67701e-07 -9.67354e-06)
(3.65136e-12 3.66493e-07 -9.6737e-06)
(-1.49352e-11 3.67835e-07 -9.67365e-06)
(-2.19712e-10 3.67662e-07 -9.67361e-06)
(-6.30846e-10 3.67113e-07 -9.67385e-06)
(-5.2819e-10 3.68903e-07 -9.67441e-06)
(-5.03544e-10 3.67244e-07 -9.67406e-06)
(-7.75645e-10 3.68977e-07 -9.67458e-06)
(-8.94103e-10 3.67959e-07 -9.67363e-06)
(-1.42081e-09 3.67592e-07 -9.67368e-06)
(-1.91726e-09 3.68288e-07 -9.67382e-06)
(-2.38854e-09 3.69269e-07 -9.67407e-06)
(-6.0005e-09 3.68185e-07 -9.67294e-06)
(-3.2024e-08 3.66057e-07 -9.67171e-06)
(-2.13964e-07 3.4917e-07 -9.74545e-06)
(-1.50168e-06 2.99367e-07 -1.03494e-05)
(-1.31246e-05 3.05091e-07 -6.23739e-06)
(1.31676e-05 1.88934e-07 -6.22538e-06)
(1.51145e-06 1.85658e-07 -1.03504e-05)
(2.1811e-07 2.18092e-07 -9.74405e-06)
(3.28615e-08 2.29136e-07 -9.66897e-06)
(5.97219e-09 2.30065e-07 -9.6711e-06)
(2.52827e-09 2.30983e-07 -9.6719e-06)
(1.79851e-09 2.31207e-07 -9.672e-06)
(1.40497e-09 2.30748e-07 -9.672e-06)
(1.1021e-09 2.30891e-07 -9.67198e-06)
(9.10973e-10 2.31043e-07 -9.67188e-06)
(5.42683e-10 2.30846e-07 -9.67185e-06)
(4.08378e-10 2.31308e-07 -9.67244e-06)
(4.04735e-10 2.31557e-07 -9.67195e-06)
(-2.9843e-11 2.30945e-07 -9.67184e-06)
(8.85551e-13 2.30599e-07 -9.6724e-06)
(1.41504e-10 2.31071e-07 -9.67189e-06)
(-2.76441e-10 2.3095e-07 -9.67188e-06)
(-4.99575e-10 2.30033e-07 -9.67208e-06)
(-5.72802e-10 2.32619e-07 -9.67254e-06)
(-6.09941e-10 2.31068e-07 -9.67251e-06)
(-6.39095e-10 2.31066e-07 -9.67253e-06)
(-9.11995e-10 2.30929e-07 -9.67194e-06)
(-1.39523e-09 2.30882e-07 -9.67197e-06)
(-1.82505e-09 2.31234e-07 -9.67196e-06)
(-2.40129e-09 2.31746e-07 -9.67192e-06)
(-6.14185e-09 2.31005e-07 -9.67103e-06)
(-3.30497e-08 2.29502e-07 -9.6698e-06)
(-2.17956e-07 2.17646e-07 -9.74412e-06)
(-1.51146e-06 1.85499e-07 -1.03504e-05)
(-1.31681e-05 1.90181e-07 -6.22531e-06)
(1.31926e-05 1.1655e-07 -6.21834e-06)
(1.51751e-06 1.13621e-07 -1.03507e-05)
(2.20766e-07 1.34222e-07 -9.74299e-06)
(3.34639e-08 1.41657e-07 -9.6677e-06)
(6.08201e-09 1.42751e-07 -9.67026e-06)
(2.67328e-09 1.4277e-07 -9.67076e-06)
(1.78293e-09 1.42998e-07 -9.67076e-06)
(1.37316e-09 1.42767e-07 -9.67079e-06)
(1.0943e-09 1.42889e-07 -9.67078e-06)
(8.84576e-10 1.43057e-07 -9.67067e-06)
(5.29853e-10 1.42712e-07 -9.67071e-06)
(4.61262e-10 1.42481e-07 -9.67087e-06)
(4.23462e-10 1.43236e-07 -9.67058e-06)
(5.06853e-12 1.42935e-07 -9.67063e-06)
(9.42975e-12 1.43293e-07 -9.67112e-06)
(8.85684e-11 1.43037e-07 -9.67056e-06)
(-4.00601e-10 1.43007e-07 -9.67056e-06)
(-4.25245e-10 1.4292e-07 -9.67118e-06)
(-3.57789e-10 1.43916e-07 -9.67109e-06)
(-7.48936e-10 1.43625e-07 -9.67114e-06)
(-7.36732e-10 1.43489e-07 -9.67124e-06)
(-8.39044e-10 1.42596e-07 -9.67089e-06)
(-1.36207e-09 1.42908e-07 -9.67073e-06)
(-1.77196e-09 1.43022e-07 -9.6707e-06)
(-2.43253e-09 1.43304e-07 -9.67058e-06)
(-6.39587e-09 1.42596e-07 -9.66986e-06)
(-3.38459e-08 1.4154e-07 -9.66858e-06)
(-2.20556e-07 1.33332e-07 -9.74298e-06)
(-1.51728e-06 1.1352e-07 -1.03507e-05)
(-1.31932e-05 1.16792e-07 -6.21794e-06)
(1.32073e-05 6.94901e-08 -6.21405e-06)
(1.52082e-06 6.69058e-08 -1.03509e-05)
(2.22492e-07 7.94059e-08 -9.7423e-06)
(3.4069e-08 8.41502e-08 -9.66684e-06)
(6.13923e-09 8.52136e-08 -9.66935e-06)
(2.60231e-09 8.45345e-08 -9.67019e-06)
(1.79155e-09 8.49211e-08 -9.67e-06)
(1.35581e-09 8.48312e-08 -9.67003e-06)
(1.09645e-09 8.49297e-08 -9.67001e-06)
(8.50883e-10 8.49895e-08 -9.66981e-06)
(4.31856e-10 8.4541e-08 -9.67014e-06)
(5.14028e-10 8.51217e-08 -9.67032e-06)
(5.18168e-10 8.51315e-08 -9.66979e-06)
(-2.72176e-11 8.49581e-08 -9.66987e-06)
(1.45328e-11 8.44168e-08 -9.67034e-06)
(1.18741e-10 8.48909e-08 -9.66967e-06)
(-2.95387e-10 8.50084e-08 -9.66966e-06)
(-3.78142e-10 8.58135e-08 -9.67014e-06)
(-4.44179e-10 8.55443e-08 -9.6699e-06)
(-6.61437e-10 8.47102e-08 -9.67031e-06)
(-7.91859e-10 8.61506e-08 -9.67002e-06)
(-9.68967e-10 8.40948e-08 -9.67008e-06)
(-1.31482e-09 8.49795e-08 -9.66988e-06)
(-1.74695e-09 8.49016e-08 -9.66994e-06)
(-2.48874e-09 8.51024e-08 -9.66979e-06)
(-6.49375e-09 8.40806e-08 -9.669e-06)
(-3.44277e-08 8.52255e-08 -9.66755e-06)
(-2.22355e-07 7.93874e-08 -9.74263e-06)
(-1.52057e-06 6.67975e-08 -1.03508e-05)
(-1.32073e-05 6.89905e-08 -6.21363e-06)
(1.32153e-05 3.56524e-08 -6.21161e-06)
(1.52273e-06 3.49882e-08 -1.0351e-05)
(2.23524e-07 4.16981e-08 -9.74192e-06)
(3.43787e-08 4.42382e-08 -9.66627e-06)
(6.10556e-09 4.38425e-08 -9.66922e-06)
(2.64835e-09 4.38756e-08 -9.66971e-06)
(1.84083e-09 4.46992e-08 -9.66956e-06)
(1.34973e-09 4.46898e-08 -9.6696e-06)
(1.07671e-09 4.47579e-08 -9.66958e-06)
(7.83435e-10 4.46953e-08 -9.66951e-06)
(5.6295e-10 4.39321e-08 -9.66968e-06)
(5.86295e-10 4.56174e-08 -9.66961e-06)
(4.06151e-10 4.49021e-08 -9.66931e-06)
(-1.50673e-10 4.47902e-08 -9.66944e-06)
(-1.65639e-11 4.4751e-08 -9.67012e-06)
(2.2351e-10 4.4497e-08 -9.66948e-06)
(-2.08938e-10 4.47707e-08 -9.66932e-06)
(-3.25067e-10 4.51701e-08 -9.66973e-06)
(-5.6826e-10 4.50444e-08 -9.66925e-06)
(-6.2293e-10 4.50648e-08 -9.67e-06)
(-8.31994e-10 4.53436e-08 -9.66949e-06)
(-1.03622e-09 4.46139e-08 -9.67005e-06)
(-1.21321e-09 4.47571e-08 -9.66933e-06)
(-1.73835e-09 4.45724e-08 -9.6696e-06)
(-2.60291e-09 4.48244e-08 -9.66936e-06)
(-6.4125e-09 4.46087e-08 -9.66892e-06)
(-3.44806e-08 4.55687e-08 -9.66678e-06)
(-2.23549e-07 4.25583e-08 -9.74203e-06)
(-1.52255e-06 3.47666e-08 -1.0351e-05)
(-1.32153e-05 3.62174e-08 -6.21125e-06)
(1.32187e-05 1.13904e-08 -6.21053e-06)
(1.52372e-06 1.08472e-08 -1.0351e-05)
(2.23983e-07 1.29423e-08 -9.74177e-06)
(3.43545e-08 1.36305e-08 -9.6662e-06)
(6.03898e-09 1.32339e-08 -9.66916e-06)
(2.80111e-09 1.38916e-08 -9.66984e-06)
(1.95697e-09 1.38745e-08 -9.66938e-06)
(1.35105e-09 1.38957e-08 -9.66941e-06)
(1.06349e-09 1.39299e-08 -9.66939e-06)
(6.59577e-10 1.39057e-08 -9.6694e-06)
(6.15665e-10 1.39191e-08 -9.66981e-06)
(7.10852e-10 1.41809e-08 -9.66954e-06)
(3.68092e-10 1.38927e-08 -9.66902e-06)
(-7.05095e-11 1.39713e-08 -9.66925e-06)
(-5.69601e-11 1.44611e-08 -9.66977e-06)
(1.34889e-10 1.35019e-08 -9.66958e-06)
(-1.48064e-10 1.38952e-08 -9.66908e-06)
(-3.10486e-10 1.40441e-08 -9.66933e-06)
(-4.65567e-10 1.40119e-08 -9.66917e-06)
(-6.05569e-10 1.49066e-08 -9.66944e-06)
(-8.63116e-10 1.41488e-08 -9.66924e-06)
(-1.06411e-09 1.43946e-08 -9.66977e-06)
(-1.30523e-09 1.38742e-08 -9.66927e-06)
(-1.71598e-09 1.35242e-08 -9.6696e-06)
(-2.49531e-09 1.39374e-08 -9.66915e-06)
(-6.38514e-09 1.4398e-08 -9.66855e-06)
(-3.46543e-08 1.4164e-08 -9.66651e-06)
(-2.24166e-07 1.33917e-08 -9.74191e-06)
(-1.52345e-06 1.03192e-08 -1.03513e-05)
(-1.32188e-05 1.12453e-08 -6.21024e-06)
(1.3219e-05 -1.03621e-08 -6.21034e-06)
(1.52354e-06 -1.08964e-08 -1.0351e-05)
(2.23963e-07 -1.30513e-08 -9.74175e-06)
(3.43752e-08 -1.39811e-08 -9.66627e-06)
(6.18141e-09 -1.3114e-08 -9.66909e-06)
(2.77607e-09 -1.31427e-08 -9.66954e-06)
(1.8463e-09 -1.40351e-08 -9.66939e-06)
(1.35464e-09 -1.39974e-08 -9.6694e-06)
(1.06363e-09 -1.39782e-08 -9.66939e-06)
(7.61963e-10 -1.39648e-08 -9.66941e-06)
(6.0278e-10 -1.31839e-08 -9.66952e-06)
(5.75966e-10 -1.42211e-08 -9.66957e-06)
(3.76185e-10 -1.426e-08 -9.66922e-06)
(-3.69171e-11 -1.39443e-08 -9.66925e-06)
(-1.12785e-10 -1.43308e-08 -9.66976e-06)
(1.08593e-10 -1.47827e-08 -9.66957e-06)
(-9.23134e-11 -1.40932e-08 -9.66921e-06)
(-2.74624e-10 -1.41229e-08 -9.66933e-06)
(-4.08232e-10 -1.39209e-08 -9.66918e-06)
(-6.07963e-10 -1.3533e-08 -9.66948e-06)
(-9.14275e-10 -1.3926e-08 -9.66924e-06)
(-1.07476e-09 -1.43887e-08 -9.66977e-06)
(-1.34532e-09 -1.40012e-08 -9.66933e-06)
(-1.71168e-09 -1.48056e-08 -9.66957e-06)
(-2.43976e-09 -1.40413e-08 -9.66916e-06)
(-6.40275e-09 -1.4498e-08 -9.66843e-06)
(-3.46515e-08 -1.41463e-08 -9.6665e-06)
(-2.24361e-07 -1.27677e-08 -9.7417e-06)
(-1.52352e-06 -1.19857e-08 -1.03511e-05)
(-1.32185e-05 -1.12883e-08 -6.21028e-06)
(1.32156e-05 -3.6176e-08 -6.21175e-06)
(1.52263e-06 -3.50746e-08 -1.0351e-05)
(2.23471e-07 -4.1869e-08 -9.74192e-06)
(3.44441e-08 -4.47624e-08 -9.66654e-06)
(6.2547e-09 -4.3852e-08 -9.66896e-06)
(2.59119e-09 -4.43843e-08 -9.66976e-06)
(1.78704e-09 -4.48575e-08 -9.66959e-06)
(1.36442e-09 -4.48098e-08 -9.66958e-06)
(1.08104e-09 -4.47717e-08 -9.66959e-06)
(8.10818e-10 -4.47409e-08 -9.66955e-06)
(5.27835e-10 -4.44519e-08 -9.66976e-06)
(4.83083e-10 -4.56302e-08 -9.66968e-06)
(4.34019e-10 -4.53051e-08 -9.6697e-06)
(-6.89574e-11 -4.47315e-08 -9.66939e-06)
(-2.10153e-10 -4.45061e-08 -9.67004e-06)
(1.65957e-10 -4.46652e-08 -9.66996e-06)
(-2.28552e-11 -4.489e-08 -9.66947e-06)
(-2.37581e-10 -4.52644e-08 -9.66972e-06)
(-3.59904e-10 -4.48421e-08 -9.66921e-06)
(-6.27261e-10 -4.46189e-08 -9.6695e-06)
(-1.01905e-09 -4.48753e-08 -9.66942e-06)
(-1.07476e-09 -4.45983e-08 -9.67006e-06)
(-1.36516e-09 -4.47653e-08 -9.66954e-06)
(-1.72403e-09 -4.47631e-08 -9.67006e-06)
(-2.4364e-09 -4.48594e-08 -9.66939e-06)
(-6.41261e-09 -4.48242e-08 -9.66889e-06)
(-3.44255e-08 -4.54764e-08 -9.66672e-06)
(-2.24135e-07 -4.15208e-08 -9.74171e-06)
(-1.52279e-06 -3.49978e-08 -1.03511e-05)
(-1.32145e-05 -3.62272e-08 -6.21134e-06)
(1.32075e-05 -6.98093e-08 -6.21383e-06)
(1.52076e-06 -6.69683e-08 -1.03509e-05)
(2.22395e-07 -7.96858e-08 -9.7424e-06)
(3.416e-08 -8.50937e-08 -9.66708e-06)
(6.29433e-09 -8.52774e-08 -9.66919e-06)
(2.54996e-09 -8.47996e-08 -9.67e-06)
(1.76097e-09 -8.5019e-08 -9.67005e-06)
(1.37712e-09 -8.49602e-08 -9.67003e-06)
(1.12098e-09 -8.49109e-08 -9.67002e-06)
(8.35972e-10 -8.49453e-08 -9.66978e-06)
(3.68208e-10 -8.48269e-08 -9.67e-06)
(3.90276e-10 -8.50615e-08 -9.67039e-06)
(5.63758e-10 -8.58852e-08 -9.67013e-06)
(1.35756e-10 -8.49774e-08 -9.66969e-06)
(-7.24551e-11 -8.39402e-08 -9.67006e-06)
(1.78228e-11 -8.40396e-08 -9.66982e-06)
(-2.30296e-10 -8.50823e-08 -9.66989e-06)
(-2.28501e-10 -8.59182e-08 -9.67015e-06)
(-2.87108e-10 -8.52015e-08 -9.66964e-06)
(-6.31365e-10 -8.49232e-08 -9.66987e-06)
(-9.03674e-10 -8.52227e-08 -9.66986e-06)
(-1.05494e-09 -8.4081e-08 -9.67006e-06)
(-1.37334e-09 -8.4891e-08 -9.66996e-06)
(-1.73203e-09 -8.40767e-08 -9.67016e-06)
(-2.44746e-09 -8.50047e-08 -9.66985e-06)
(-6.47122e-09 -8.42487e-08 -9.66903e-06)
(-3.42523e-08 -8.51633e-08 -9.66732e-06)
(-2.22748e-07 -7.92942e-08 -9.74187e-06)
(-1.52089e-06 -6.57689e-08 -1.03509e-05)
(-1.32067e-05 -6.89741e-08 -6.21367e-06)
(1.31927e-05 -1.16738e-07 -6.21824e-06)
(1.51746e-06 -1.13615e-07 -1.03508e-05)
(2.20583e-07 -1.34672e-07 -9.74332e-06)
(3.35913e-08 -1.4174e-07 -9.66819e-06)
(6.30825e-09 -1.42715e-07 -9.67019e-06)
(2.63842e-09 -1.42911e-07 -9.6707e-06)
(1.76399e-09 -1.42975e-07 -9.67084e-06)
(1.39334e-09 -1.42873e-07 -9.67082e-06)
(1.15548e-09 -1.42838e-07 -9.67077e-06)
(8.4226e-10 -1.42983e-07 -9.67042e-06)
(4.26632e-10 -1.42899e-07 -9.67069e-06)
(2.57312e-10 -1.42271e-07 -9.67085e-06)
(4.53096e-10 -1.42973e-07 -9.67115e-06)
(3.14879e-10 -1.42992e-07 -9.67057e-06)
(9.52468e-12 -1.42421e-07 -9.6709e-06)
(-5.70768e-11 -1.42615e-07 -9.67059e-06)
(-4.08953e-10 -1.43126e-07 -9.67068e-06)
(-2.41747e-10 -1.43017e-07 -9.6712e-06)
(-1.59962e-10 -1.43188e-07 -9.67062e-06)
(-6.26788e-10 -1.42951e-07 -9.67065e-06)
(-8.54647e-10 -1.43498e-07 -9.67075e-06)
(-1.02085e-09 -1.42625e-07 -9.67085e-06)
(-1.37117e-09 -1.42849e-07 -9.67072e-06)
(-1.74584e-09 -1.42452e-07 -9.67098e-06)
(-2.46571e-09 -1.42988e-07 -9.67063e-06)
(-6.38971e-09 -1.42709e-07 -9.66992e-06)
(-3.37492e-08 -1.41412e-07 -9.6684e-06)
(-2.20765e-07 -1.34125e-07 -9.7427e-06)
(-1.51744e-06 -1.13002e-07 -1.0351e-05)
(-1.31929e-05 -1.16778e-07 -6.21793e-06)
(1.31676e-05 -1.89049e-07 -6.22537e-06)
(1.51138e-06 -1.85561e-07 -1.03503e-05)
(2.18076e-07 -2.18838e-07 -9.7443e-06)
(3.30022e-08 -2.28388e-07 -9.66913e-06)
(6.04696e-09 -2.29944e-07 -9.67113e-06)
(2.52488e-09 -2.31061e-07 -9.6719e-06)
(1.79e-09 -2.30975e-07 -9.67208e-06)
(1.41327e-09 -2.30808e-07 -9.67205e-06)
(1.18044e-09 -2.30792e-07 -9.67197e-06)
(8.31671e-10 -2.30988e-07 -9.67156e-06)
(4.24581e-10 -2.31e-07 -9.67189e-06)
(3.52544e-10 -2.30845e-07 -9.67216e-06)
(4.0787e-10 -2.30169e-07 -9.67204e-06)
(2.38239e-10 -2.30948e-07 -9.67186e-06)
(2.96814e-11 -2.30658e-07 -9.67197e-06)
(-1.00742e-10 -2.30852e-07 -9.67186e-06)
(-3.0151e-10 -2.31291e-07 -9.67201e-06)
(-2.37816e-10 -2.30135e-07 -9.67211e-06)
(-2.61088e-10 -2.31095e-07 -9.67196e-06)
(-6.58827e-10 -2.30973e-07 -9.67188e-06)
(-8.45583e-10 -2.32041e-07 -9.67232e-06)
(-9.62803e-10 -2.31033e-07 -9.67188e-06)
(-1.355e-09 -2.30837e-07 -9.67194e-06)
(-1.76646e-09 -2.30614e-07 -9.67202e-06)
(-2.49313e-09 -2.31053e-07 -9.67183e-06)
(-6.14932e-09 -2.31067e-07 -9.6711e-06)
(-3.29791e-08 -2.28971e-07 -9.66935e-06)
(-2.18078e-07 -2.17808e-07 -9.74385e-06)
(-1.51156e-06 -1.85221e-07 -1.03505e-05)
(-1.31681e-05 -1.90192e-07 -6.22528e-06)
(1.31242e-05 -3.04349e-07 -6.23761e-06)
(1.50147e-06 -2.99606e-07 -1.0349e-05)
(2.14266e-07 -3.48969e-07 -9.74582e-06)
(3.21185e-08 -3.65029e-07 -9.67095e-06)
(5.82022e-09 -3.67221e-07 -9.67296e-06)
(2.49139e-09 -3.68037e-07 -9.67364e-06)
(1.84245e-09 -3.67666e-07 -9.6738e-06)
(1.43231e-09 -3.67465e-07 -9.67375e-06)
(1.1932e-09 -3.67477e-07 -9.67364e-06)
(8.06278e-10 -3.67671e-07 -9.67319e-06)
(3.9506e-10 -3.67865e-07 -9.67362e-06)
(3.88329e-10 -3.68017e-07 -9.67376e-06)
(3.95684e-10 -3.67442e-07 -9.67384e-06)
(2.1691e-10 -3.67689e-07 -9.67359e-06)
(4.15158e-11 -3.67454e-07 -9.67364e-06)
(-1.47137e-10 -3.67569e-07 -9.67363e-06)
(-2.42587e-10 -3.68359e-07 -9.67398e-06)
(-2.04165e-10 -3.67275e-07 -9.67391e-06)
(-3.05524e-10 -3.6774e-07 -9.67373e-06)
(-7.48044e-10 -3.67701e-07 -9.67358e-06)
(-8.69109e-10 -3.69687e-07 -9.67424e-06)
(-8.60074e-10 -3.68167e-07 -9.67356e-06)
(-1.31952e-09 -3.67529e-07 -9.67366e-06)
(-1.79878e-09 -3.67384e-07 -9.67365e-06)
(-2.53801e-09 -3.67937e-07 -9.67356e-06)
(-6.01516e-09 -3.68216e-07 -9.67302e-06)
(-3.195e-08 -3.65146e-07 -9.67108e-06)
(-2.14077e-07 -3.48837e-07 -9.74526e-06)
(-1.50179e-06 -2.99205e-07 -1.03494e-05)
(-1.31246e-05 -3.0515e-07 -6.23738e-06)
(1.305e-05 -4.85854e-07 -6.25682e-06)
(1.48577e-06 -4.82165e-07 -1.03468e-05)
(2.08749e-07 -5.55269e-07 -9.74693e-06)
(3.06105e-08 -5.79366e-07 -9.67283e-06)
(5.57564e-09 -5.82218e-07 -9.67487e-06)
(2.51059e-09 -5.83092e-07 -9.67586e-06)
(1.92982e-09 -5.82193e-07 -9.67577e-06)
(1.43746e-09 -5.82032e-07 -9.67578e-06)
(1.18497e-09 -5.82112e-07 -9.67566e-06)
(7.63616e-10 -5.82272e-07 -9.6753e-06)
(3.59678e-10 -5.82743e-07 -9.67586e-06)
(4.06679e-10 -5.83156e-07 -9.67599e-06)
(3.94724e-10 -5.8244e-07 -9.67578e-06)
(2.22377e-10 -5.82427e-07 -9.67564e-06)
(6.92463e-11 -5.82084e-07 -9.6757e-06)
(-2.21336e-10 -5.82128e-07 -9.67571e-06)
(-2.12213e-10 -5.8358e-07 -9.67595e-06)
(-1.21777e-10 -5.82081e-07 -9.6758e-06)
(-3.28677e-10 -5.82287e-07 -9.67584e-06)
(-9.28413e-10 -5.82317e-07 -9.67563e-06)
(-9.16057e-10 -5.84081e-07 -9.6764e-06)
(-6.80271e-10 -5.83317e-07 -9.67583e-06)
(-1.26686e-09 -5.82107e-07 -9.67573e-06)
(-1.85093e-09 -5.82007e-07 -9.67569e-06)
(-2.60669e-09 -5.829e-07 -9.67576e-06)
(-5.70463e-09 -5.83467e-07 -9.67499e-06)
(-3.04654e-08 -5.78975e-07 -9.67303e-06)
(-2.08616e-07 -5.56031e-07 -9.74682e-06)
(-1.48601e-06 -4.81672e-07 -1.03469e-05)
(-1.30501e-05 -4.86667e-07 -6.25697e-06)
(1.29254e-05 -7.73087e-07 -6.28831e-06)
(1.46135e-06 -7.76266e-07 -1.03425e-05)
(2.01139e-07 -8.84896e-07 -9.74893e-06)
(2.8719e-08 -9.17583e-07 -9.67571e-06)
(5.29848e-09 -9.21048e-07 -9.6777e-06)
(2.57622e-09 -9.22293e-07 -9.67914e-06)
(2.05408e-09 -9.20654e-07 -9.67844e-06)
(1.42776e-09 -9.20442e-07 -9.67862e-06)
(1.14789e-09 -9.20651e-07 -9.67858e-06)
(6.98039e-10 -9.20582e-07 -9.67849e-06)
(3.34656e-10 -9.21618e-07 -9.6791e-06)
(4.21944e-10 -9.22336e-07 -9.67937e-06)
(3.85602e-10 -9.21311e-07 -9.67878e-06)
(2.42213e-10 -9.21108e-07 -9.67855e-06)
(1.22322e-10 -9.20538e-07 -9.67856e-06)
(-3.46949e-10 -9.20492e-07 -9.67855e-06)
(-1.97212e-10 -9.21157e-07 -9.6789e-06)
(3.97473e-11 -9.20585e-07 -9.67862e-06)
(-3.38474e-10 -9.20628e-07 -9.67872e-06)
(-9.52146e-10 -9.20746e-07 -9.67849e-06)
(-9.7349e-10 -9.20936e-07 -9.67917e-06)
(-6.75342e-10 -9.22588e-07 -9.67928e-06)
(-1.2047e-09 -9.20506e-07 -9.67859e-06)
(-1.92685e-09 -9.20446e-07 -9.67855e-06)
(-2.72727e-09 -9.21943e-07 -9.67905e-06)
(-5.46765e-09 -9.21059e-07 -9.67785e-06)
(-2.85298e-08 -9.17924e-07 -9.67595e-06)
(-2.00964e-07 -8.84963e-07 -9.74889e-06)
(-1.46156e-06 -7.75769e-07 -1.03424e-05)
(-1.29251e-05 -7.742e-07 -6.28888e-06)
(1.27243e-05 -1.2283e-06 -6.34378e-06)
(1.42563e-06 -1.25135e-06 -1.03402e-05)
(1.90847e-07 -1.40763e-06 -9.75732e-06)
(2.63531e-08 -1.45185e-06 -9.68532e-06)
(4.98575e-09 -1.45582e-06 -9.68709e-06)
(2.65529e-09 -1.45778e-06 -9.68864e-06)
(2.19731e-09 -1.45487e-06 -9.68801e-06)
(1.45518e-09 -1.45473e-06 -9.68801e-06)
(1.12395e-09 -1.45517e-06 -9.68823e-06)
(5.96321e-10 -1.4546e-06 -9.68799e-06)
(2.78237e-10 -1.45651e-06 -9.68826e-06)
(4.42277e-10 -1.45769e-06 -9.68872e-06)
(3.66417e-10 -1.45623e-06 -9.68852e-06)
(2.66355e-10 -1.4558e-06 -9.68807e-06)
(1.95862e-10 -1.4549e-06 -9.68789e-06)
(-2.39276e-10 -1.45476e-06 -9.68788e-06)
(-1.76541e-10 -1.45481e-06 -9.68815e-06)
(1.34811e-11 -1.45486e-06 -9.68797e-06)
(-3.39646e-10 -1.45471e-06 -9.68784e-06)
(-8.39734e-10 -1.45506e-06 -9.68789e-06)
(-1.0463e-09 -1.45548e-06 -9.68875e-06)
(-8.42706e-10 -1.45823e-06 -9.68891e-06)
(-1.13024e-09 -1.45474e-06 -9.68792e-06)
(-2.02098e-09 -1.45474e-06 -9.68793e-06)
(-2.64976e-09 -1.45718e-06 -9.6885e-06)
(-5.25591e-09 -1.45467e-06 -9.68675e-06)
(-2.63127e-08 -1.45072e-06 -9.68515e-06)
(-1.9063e-07 -1.40727e-06 -9.75703e-06)
(-1.42587e-06 -1.25078e-06 -1.03399e-05)
(-1.27235e-05 -1.22988e-06 -6.34393e-06)
(1.242e-05 -1.94912e-06 -6.4541e-06)
(1.37757e-06 -2.01607e-06 -1.03624e-05)
(1.77455e-07 -2.23438e-06 -9.79662e-06)
(2.33891e-08 -2.29375e-06 -9.72663e-06)
(4.65036e-09 -2.2979e-06 -9.72815e-06)
(2.80061e-09 -2.29871e-06 -9.73013e-06)
(2.40873e-09 -2.29599e-06 -9.72907e-06)
(1.50196e-09 -2.29621e-06 -9.7292e-06)
(1.11434e-09 -2.29712e-06 -9.72991e-06)
(3.91504e-10 -2.29567e-06 -9.72877e-06)
(1.25091e-10 -2.29643e-06 -9.72899e-06)
(4.94186e-10 -2.29835e-06 -9.72877e-06)
(3.94212e-10 -2.29849e-06 -9.72919e-06)
(2.95036e-10 -2.29793e-06 -9.72954e-06)
(2.6794e-10 -2.2965e-06 -9.72891e-06)
(-1.59862e-10 -2.29627e-06 -9.72888e-06)