/*--------------------------------*- C++ -*----------------------------------*\
| =========                 |                                                 |
| \\      /  F ield         | OpenFOAM: The Open Source CFD Toolbox           |
|  \\    /   O peration     | Version:  2106                                  |
|   \\  /    A nd           | Website:  www.openfoam.com                      |
|    \\/     M anipulation  |                                                 |
\*---------------------------------------------------------------------------*/
FoamFile
{
    version     2.0;
    format      ascii;
    arch        "LSB;label=32;scalar=64";
    class       volSymmTensorField;
    location    "765";
    object      epsilon;
}
// * * * * * * * * * * * * * * * * * * * * * * * * * * * * * * * * * * * * * //

dimensions      [0 0 0 0 0 0 0];

internalField   nonuniform List<symmTensor> 
9000
(
(-0.0855807 -0.000263504 0.048162 -0.147116 0.061407 -0.0253733)
(-0.0167732 0.000537821 0.00938381 -0.156475 0.0651284 -0.0697522)
(-0.00192931 0.000335751 0.00256571 -0.166385 0.0691562 -0.0595171)
(-0.000321077 5.06321e-05 0.000451636 -0.167997 0.070045 -0.0573954)
(-5.53373e-05 -7.9484e-06 3.97779e-05 -0.168079 0.0700715 -0.0574078)
(-3.88187e-06 -2.05732e-06 1.76752e-05 -0.167896 0.0698599 -0.0576821)
(-1.31066e-06 -3.56972e-08 2.55327e-05 -0.168021 0.0700233 -0.0575675)
(5.30926e-08 -5.91649e-06 7.76661e-06 -0.167889 0.069861 -0.0576824)
(-9.20611e-07 6.45102e-06 3.13044e-05 -0.167887 0.0698576 -0.0576898)
(-6.55394e-06 6.6301e-06 -7.42499e-06 -0.168061 0.0700451 -0.0574715)
(2.42137e-06 -6.26434e-06 -4.90139e-05 -0.167942 0.0699279 -0.0575984)
(7.85355e-06 -5.38902e-07 3.97457e-05 -0.167761 0.0697374 -0.0578379)
(-4.59408e-06 5.45175e-06 5.89245e-05 -0.16805 0.0700332 -0.0574995)
(-4.35717e-06 8.28555e-07 -3.01887e-05 -0.168067 0.0700421 -0.0574881)
(3.42442e-06 8.62622e-07 1.85636e-06 -0.167955 0.0699368 -0.0575823)
(-2.6332e-06 -1.187e-06 3.04724e-05 -0.168063 0.0700469 -0.0574732)
(-2.1695e-06 3.38678e-07 -3.63214e-05 -0.168065 0.0700412 -0.057493)
(3.88842e-09 7.56497e-07 -3.12168e-06 -0.167958 0.069939 -0.0575736)
(-2.16929e-06 -6.66455e-06 -2.4801e-05 -0.168052 0.0700386 -0.0574877)
(4.64965e-06 -6.37459e-06 -2.66641e-05 -0.167773 0.0697468 -0.0578021)
(2.76029e-06 5.81929e-06 3.96853e-05 -0.167874 0.0698509 -0.0577151)
(-5.68672e-06 6.53741e-06 6.75493e-06 -0.16806 0.0700388 -0.0574859)
(-3.481e-06 -5.87965e-06 -3.20615e-05 -0.168065 0.0700479 -0.0574681)
(1.07518e-07 -8.10364e-07 -2.65655e-05 -0.167901 0.0698653 -0.0576687)
(-7.75423e-06 1.65891e-06 -2.42326e-05 -0.168052 0.0700334 -0.0574949)
(-5.38749e-05 1.94078e-06 -9.32181e-05 -0.167912 0.0698906 -0.0576047)
(-0.000314516 -4.56858e-05 -0.000439986 -0.167867 0.0699202 -0.0575381)
(-0.00192991 -0.00033553 -0.002528 -0.166381 0.0691447 -0.0595436)
(-0.016776 -0.000536876 -0.00938216 -0.156473 0.0651274 -0.0697536)
(-0.08558 0.000263432 -0.048163 -0.147115 0.0614025 -0.0253789)
(-0.0724034 -1.12645e-05 0.0464788 -0.0980716 0.0681825 -0.128991)
(-0.0163973 0.000682533 0.00802474 -0.103197 0.071748 -0.175005)
(-0.00180221 0.00043268 0.00154241 -0.109234 0.076234 -0.17132)
(-0.000206426 7.09645e-05 0.000229479 -0.1104 0.0773919 -0.170637)
(-2.73492e-05 -6.32191e-06 3.23369e-05 -0.110422 0.0774248 -0.170684)
(-4.46565e-06 -3.26596e-06 3.13237e-05 -0.110202 0.077358 -0.170699)
(-2.07445e-06 5.0691e-07 2.58398e-05 -0.110369 0.0773692 -0.17071)
(-1.47054e-06 -1.71427e-06 -2.64968e-06 -0.110178 0.0773627 -0.170696)
(-7.47341e-07 2.06318e-06 3.4237e-05 -0.11018 0.0773557 -0.170703)
(-1.19814e-06 7.22364e-06 3.38697e-05 -0.110394 0.0773821 -0.170707)
(-4.62731e-07 3.32409e-06 -1.14275e-05 -0.110296 0.077557 -0.170677)
(7.84862e-08 -5.88494e-06 4.35413e-06 -0.110076 0.0775215 -0.170667)
(-1.08725e-06 -6.98722e-06 2.37684e-05 -0.110393 0.0773645 -0.17071)
(-7.98174e-07 6.30853e-06 1.79756e-06 -0.11037 0.0772294 -0.170691)
(1.19583e-07 3.75218e-06 -1.46329e-06 -0.110309 0.0775705 -0.17068)
(-3.78898e-07 -9.01515e-06 -2.06868e-06 -0.110397 0.0773865 -0.170711)
(-2.42402e-07 5.16532e-06 -8.28955e-07 -0.110368 0.0772284 -0.170694)
(-1.76664e-07 3.80573e-06 -3.48027e-06 -0.110313 0.0775717 -0.170676)
(-7.64948e-07 -2.1492e-06 -2.46425e-05 -0.110384 0.0773724 -0.170711)
(-7.91402e-07 -1.92178e-06 -2.79397e-05 -0.110083 0.0775421 -0.170666)
(-7.91556e-07 -4.15561e-06 4.68944e-06 -0.110164 0.0773433 -0.170691)
(-9.4077e-07 1.92259e-06 4.93615e-06 -0.110405 0.077372 -0.170713)
(-1.10282e-06 -1.08573e-06 -3.76413e-05 -0.110397 0.0773871 -0.170708)
(-1.55317e-06 -1.73928e-06 -2.29436e-05 -0.110196 0.0773656 -0.170693)
(-5.15481e-06 3.42133e-06 -2.90541e-05 -0.110398 0.0773623 -0.170711)
(-2.77118e-05 9.93041e-06 -5.08484e-05 -0.110214 0.077408 -0.170668)
(-0.000206187 -7.34606e-05 -0.000209118 -0.110289 0.0775549 -0.170606)
(-0.00180235 -0.000437654 -0.00154438 -0.109198 0.0760739 -0.171319)
(-0.0163973 -0.000679195 -0.00802735 -0.103195 0.071746 -0.175003)
(-0.0724023 1.12388e-05 -0.0464793 -0.0980752 0.0681723 -0.128992)
(-0.0763047 0.00117273 0.0467456 -0.0575537 0.0581647 -0.153406)
(-0.0165232 0.000871448 0.00786454 -0.0602169 0.0606467 -0.201966)
(-0.00180447 0.000519526 0.00136777 -0.063366 0.0647173 -0.199928)
(-0.000186588 9.82265e-05 0.000169219 -0.0641021 0.0658942 -0.199627)
(-1.85218e-05 -8.8255e-07 5.60529e-05 -0.0641041 0.0659375 -0.199687)
(-4.66375e-06 -5.15795e-06 3.47453e-05 -0.0639983 0.066047 -0.199648)
(-2.00103e-06 2.18084e-06 2.49619e-05 -0.0640743 0.0658762 -0.199696)
(-2.27458e-06 4.48116e-06 2.20543e-05 -0.0639919 0.0661444 -0.199667)
(-1.49784e-06 -2.86013e-06 7.95078e-06 -0.0640003 0.0661371 -0.199671)
(1.18507e-06 -2.77908e-06 9.34026e-06 -0.0640766 0.0658973 -0.199701)
(-7.56579e-07 3.22122e-06 1.85373e-05 -0.064065 0.065872 -0.199688)
(-3.43633e-06 -2.69877e-06 4.76517e-06 -0.063977 0.0661185 -0.199649)
(-3.44537e-07 -3.44223e-06 -1.99378e-05 -0.0640561 0.065787 -0.199657)
(1.36173e-06 3.84576e-06 5.88878e-07 -0.0640079 0.0659001 -0.199683)
(-9.44144e-07 5.2178e-07 1.20732e-05 -0.06407 0.0658882 -0.199691)
(-1.24257e-07 -1.06669e-06 -1.70248e-05 -0.0640783 0.0659032 -0.199703)
(1.04187e-06 4.62574e-07 1.74203e-07 -0.0640076 0.0658989 -0.199686)
(2.98099e-07 2.85126e-07 1.15366e-05 -0.0640721 0.0658876 -0.199691)
(-4.1832e-07 2.33488e-06 2.80415e-06 -0.0640704 0.0658875 -0.1997)
(-3.11702e-06 2.80406e-06 -9.19548e-07 -0.063981 0.0661237 -0.199653)
(-2.73205e-06 -5.51942e-06 -2.14515e-05 -0.0639824 0.0661383 -0.199657)
(1.08245e-06 -2.54502e-06 -2.33796e-05 -0.0640674 0.0657963 -0.199683)
(1.30494e-07 5.09878e-06 -1.29944e-05 -0.0640768 0.0659043 -0.199703)
(-2.35819e-06 -3.97103e-06 -2.1031e-05 -0.064011 0.0661441 -0.199667)
(-4.00606e-06 4.04413e-06 -2.98352e-05 -0.0640716 0.0657863 -0.199676)
(-2.0211e-05 4.63433e-06 -4.60214e-05 -0.0640239 0.0661854 -0.19965)
(-0.000188772 -0.000102362 -0.000188683 -0.0640792 0.0658569 -0.199609)
(-0.00180353 -0.000519257 -0.00137462 -0.0632929 0.0646977 -0.199916)
(-0.016522 -0.000871985 -0.00785403 -0.0602148 0.0606448 -0.201963)
(-0.0763019 -0.00117252 -0.0467453 -0.0575629 0.0581519 -0.153407)
(-0.0818778 0.00181545 0.0483684 -0.0351663 0.0409086 -0.154295)
(-0.0170824 0.00088026 0.0081372 -0.0372327 0.0422664 -0.205378)
(-0.00186638 0.000494961 0.00148746 -0.0391077 0.0456082 -0.203493)
(-0.000206485 0.000100457 0.000189811 -0.0396307 0.0464867 -0.203202)
(-2.02958e-05 -7.64804e-07 4.1226e-05 -0.03964 0.0465331 -0.203268)
(-3.78623e-06 -6.75779e-06 3.52921e-05 -0.0395808 0.0464297 -0.203236)
(-2.12964e-06 1.26549e-06 3.34285e-05 -0.039605 0.0464173 -0.203264)
(-2.13548e-06 1.53859e-06 1.90232e-05 -0.0396222 0.0465016 -0.203286)
(-1.07673e-06 4.96656e-07 1.25116e-05 -0.0396165 0.046428 -0.203249)
(7.44056e-07 3.3361e-07 1.17315e-05 -0.0396145 0.0465012 -0.20328)
(-1.27472e-06 -1.98821e-06 1.4768e-05 -0.0396095 0.0464878 -0.203277)
(-3.00136e-06 7.53493e-07 -4.51405e-06 -0.039614 0.046479 -0.203254)
(2.25445e-07 5.94592e-06 -3.55935e-06 -0.0395688 0.046502 -0.20326)
(9.08654e-07 1.03468e-06 1.04506e-05 -0.0395899 0.0466668 -0.203286)
(-1.09043e-06 -3.47722e-06 -7.43067e-07 -0.0396073 0.046502 -0.203279)
(5.17389e-08 4.10017e-06 -3.8232e-06 -0.0396158 0.0465076 -0.203284)
(8.44023e-07 -6.071e-07 -2.44431e-07 -0.0395906 0.0466654 -0.203289)
(9.1333e-09 -4.23183e-06 -2.92892e-07 -0.0396076 0.0465016 -0.20328)
(-6.88358e-07 -1.56554e-06 -1.45309e-06 -0.0396114 0.0464921 -0.203258)
(-2.76482e-06 -7.49229e-07 -5.73866e-06 -0.0396158 0.0464899 -0.20328)
(-2.22814e-06 1.11973e-06 -2.6324e-05 -0.0396176 0.0464915 -0.203261)
(9.43145e-07 1.5784e-06 -1.98279e-05 -0.0395797 0.0464961 -0.203252)
(-3.20025e-07 -1.25784e-06 -6.8692e-06 -0.0396121 0.0465101 -0.203284)
(-2.23825e-06 -3.83883e-06 -3.04158e-05 -0.0396214 0.0464323 -0.20327)
(-3.12694e-06 4.8604e-06 -3.02995e-05 -0.0395742 0.04642 -0.203228)
(-2.15128e-05 1.93238e-07 -3.48439e-05 -0.0396475 0.0465318 -0.203264)
(-0.000208598 -9.76974e-05 -0.000191443 -0.039617 0.0464611 -0.203192)
(-0.00186624 -0.000492518 -0.00149504 -0.0390838 0.0457505 -0.203466)
(-0.0170805 -0.000885612 -0.00814087 -0.0372312 0.042265 -0.205375)
(-0.081882 -0.00181475 -0.0483664 -0.0351569 0.0408318 -0.154281)
(-0.0860583 0.00177846 0.0503688 -0.0220579 0.0263838 -0.152288)
(-0.0177671 0.000770756 0.00855106 -0.023578 0.0267735 -0.205729)
(-0.00194989 0.000412496 0.00165872 -0.0249318 0.0293915 -0.203766)
(-0.000234354 8.63166e-05 0.000210223 -0.0252869 0.0299606 -0.203435)
(-2.56175e-05 5.393e-06 4.02911e-05 -0.025288 0.0299506 -0.203495)
(-3.46988e-06 -4.73145e-06 2.38672e-05 -0.0252438 0.030095 -0.203526)
(-1.76094e-06 -2.83893e-06 3.22973e-05 -0.0252444 0.029918 -0.203504)
(-1.88683e-06 2.23156e-06 1.78787e-05 -0.0252819 0.0299927 -0.203529)
(-5.84038e-07 -1.60007e-07 1.37485e-05 -0.0252557 0.029994 -0.203517)
(5.72246e-08 -2.20672e-06 2.1188e-05 -0.0252848 0.0299823 -0.203503)
(-1.46821e-06 -2.0702e-06 1.23478e-05 -0.0252666 0.0299215 -0.203507)
(-2.21218e-06 3.96911e-06 3.678e-06 -0.0252823 0.0299826 -0.203512)
(5.37281e-08 4.92066e-06 -2.58996e-06 -0.0252721 0.0300801 -0.203531)
(5.96008e-07 -1.2154e-06 2.28491e-06 -0.0252993 0.0300081 -0.203527)
(-1.01032e-06 -2.14206e-06 7.89444e-07 -0.0252769 0.0299859 -0.203521)
(-9.54188e-08 2.54186e-06 -4.5346e-06 -0.0252873 0.0299873 -0.203522)
(7.99546e-07 -3.3128e-07 -8.86326e-07 -0.0252999 0.0300068 -0.203529)
(-2.60907e-07 -3.44794e-06 1.01285e-06 -0.0252765 0.0299856 -0.203522)
(-1.01411e-06 -1.71804e-06 -3.40618e-06 -0.0252843 0.0299807 -0.203493)
(-1.91117e-06 -1.04085e-07 -7.66627e-06 -0.0252812 0.0299851 -0.203524)
(-1.53298e-06 2.74694e-06 -1.46503e-05 -0.0252817 0.0299908 -0.203519)
(-3.39998e-08 1.88089e-06 -1.74733e-05 -0.0252599 0.030031 -0.203519)
(-9.45447e-07 -1.14823e-06 -2.53051e-05 -0.0252785 0.0299907 -0.203525)
(-1.41045e-06 -9.96209e-07 -3.03691e-05 -0.0252632 0.0299898 -0.203518)
(-2.8029e-06 2.49415e-06 -2.02121e-05 -0.0252398 0.0300226 -0.203506)
(-2.65709e-05 -4.79993e-06 -3.54308e-05 -0.0253027 0.03001 -0.203504)
(-0.00023596 -8.64328e-05 -0.000212192 -0.0252853 0.0299427 -0.203423)
(-0.00194998 -0.000409621 -0.0016633 -0.0249488 0.0294053 -0.203761)
(-0.0177642 -0.000771875 -0.0085636 -0.0235773 0.0267719 -0.205727)
(-0.0860652 -0.00177648 -0.0503563 -0.0220259 0.0263739 -0.152279)
(-0.0887428 0.00139832 0.0521172 -0.0139502 0.0164667 -0.151262)
(-0.018364 0.000609188 0.00895227 -0.0148824 0.0163779 -0.206543)
(-0.00203139 0.000319903 0.0018113 -0.0159393 0.0181856 -0.20448)
(-0.000259138 7.37301e-05 0.000233074 -0.0161925 0.0187143 -0.204176)
(-3.09952e-05 7.87798e-06 4.81167e-05 -0.0161812 0.0187551 -0.204246)
(-3.97459e-06 -2.50464e-06 2.99461e-05 -0.0161987 0.0188344 -0.204286)
(-1.40225e-06 -3.86226e-06 2.47597e-05 -0.0161535 0.0187604 -0.204265)
(-1.67385e-06 1.5292e-06 2.48031e-05 -0.0161935 0.0187482 -0.204273)
(-1.01258e-06 -1.67392e-06 1.36785e-05 -0.016186 0.0188191 -0.204284)
(-2.23273e-07 -2.8718e-06 5.48411e-06 -0.016186 0.0186965 -0.204259)
(-9.95144e-07 -1.6417e-06 1.11002e-05 -0.0161652 0.0187367 -0.204263)
(-1.56407e-06 1.34117e-07 1.09894e-05 -0.0161878 0.0186943 -0.204236)
(1.19772e-08 4.83922e-06 -6.06075e-07 -0.0162055 0.0187055 -0.204261)
(2.0652e-07 8.57109e-07 3.48199e-06 -0.0162058 0.0187609 -0.204271)
(-1.04033e-06 -2.54478e-06 9.45011e-07 -0.0161923 0.0187429 -0.204267)
(-1.35165e-07 1.85742e-06 -3.74374e-06 -0.0161898 0.0186964 -0.204257)
(4.89847e-07 8.12797e-07 -1.55522e-06 -0.0162058 0.0187592 -0.204273)
(-4.52187e-07 -4.25551e-06 -4.42687e-07 -0.0161917 0.0187436 -0.204269)
(-8.58514e-07 -1.48787e-06 -4.53909e-06 -0.0161893 0.0186943 -0.204237)
(-1.58281e-06 1.34225e-06 -7.70184e-06 -0.0161983 0.0187421 -0.204268)
(-1.20355e-06 2.96215e-06 -2.18851e-05 -0.0162013 0.0187451 -0.204248)
(1.34781e-07 1.88693e-06 -1.62603e-05 -0.0161824 0.0187549 -0.204271)
(-1.41259e-06 -4.09685e-07 -8.33548e-06 -0.0161923 0.0187468 -0.204273)
(-1.66967e-06 6.73453e-07 -3.15761e-05 -0.0161834 0.0187723 -0.204252)
(-2.83379e-06 4.2777e-07 -2.78261e-05 -0.0161746 0.0187744 -0.204266)
(-3.19166e-05 -8.26822e-06 -3.57866e-05 -0.0162119 0.0187566 -0.204246)
(-0.000260527 -7.23765e-05 -0.000244297 -0.0161881 0.0186554 -0.204135)
(-0.00203099 -0.00031662 -0.00181355 -0.0159478 0.0181945 -0.204496)
(-0.0183608 -0.000607737 -0.00895482 -0.0148822 0.0163765 -0.20654)
(-0.0887419 -0.00139737 -0.0521038 -0.0139377 0.0165322 -0.151265)
(-0.0904001 0.000964938 0.0534014 -0.00882057 0.0102387 -0.150982)
(-0.0188003 0.000448258 0.00928306 -0.00929855 0.00999145 -0.207535)
(-0.00209828 0.00023787 0.00192617 -0.0101 0.0113135 -0.20547)
(-0.000278721 5.83008e-05 0.000273996 -0.0103125 0.011668 -0.205148)
(-3.63141e-05 6.7942e-06 5.09941e-05 -0.01032 0.0117618 -0.205217)
(-4.535e-06 -1.00022e-06 2.08713e-05 -0.0103372 0.0117192 -0.205249)
(-1.02765e-06 -2.69651e-06 2.4547e-05 -0.0103011 0.0117584 -0.205235)
(-1.72755e-06 -1.38639e-06 2.43719e-05 -0.0103185 0.0116985 -0.205248)
(-9.67232e-07 -2.56636e-07 5.8843e-06 -0.0103281 0.0117068 -0.20525)
(-2.77618e-07 -2.01424e-07 1.25379e-05 -0.0102966 0.0116963 -0.205245)
(-1.3578e-06 -1.77155e-06 9.65955e-06 -0.0103066 0.0117502 -0.205253)
(-7.87246e-07 -1.75523e-06 -3.20879e-06 -0.0103019 0.011694 -0.205236)
(5.98164e-07 2.88415e-06 9.08581e-06 -0.0103027 0.0116621 -0.205231)
(-5.18818e-07 5.24427e-07 1.0741e-05 -0.0103253 0.0117066 -0.205244)
(-1.17571e-06 -9.03044e-07 -6.7101e-06 -0.0103181 0.0116949 -0.205243)
(1.82348e-07 1.44167e-06 -2.79024e-06 -0.0102997 0.0116955 -0.205239)
(-9.71608e-08 -3.88029e-07 5.50196e-06 -0.0103252 0.0117051 -0.205245)
(-7.41827e-07 -2.70544e-06 -1.00049e-05 -0.0103175 0.0116957 -0.205244)
(-2.47305e-07 -1.93458e-06 -5.03203e-06 -0.0103035 0.0116934 -0.205241)
(-1.0381e-06 -8.693e-07 2.72259e-07 -0.010314 0.011652 -0.205233)
(-1.06618e-06 4.81294e-06 -1.3588e-05 -0.0103209 0.0116576 -0.205217)
(-5.6207e-07 2.99537e-06 -1.49573e-05 -0.0103185 0.0117641 -0.205258)
(-1.76196e-06 -1.3211e-06 -2.37795e-05 -0.0103177 0.0116988 -0.205249)
(-1.13019e-06 2.02391e-06 -3.14817e-05 -0.0103102 0.0117079 -0.205242)
(-3.42465e-06 -1.36343e-06 -1.92269e-05 -0.0103056 0.0117272 -0.205241)
(-3.67632e-05 -8.80253e-06 -4.60115e-05 -0.0103222 0.0116604 -0.20521)
(-0.000279538 -5.41383e-05 -0.000276599 -0.0103006 0.0116592 -0.205114)
(-0.00209817 -0.000235759 -0.00192215 -0.0101054 0.011317 -0.205465)
(-0.0187983 -0.000447796 -0.00928587 -0.00929969 0.00998935 -0.207529)
(-0.0903953 -0.000966238 -0.0533958 -0.00882746 0.0102505 -0.150987)
(-0.0914189 0.000613086 0.0542509 -0.00556871 0.0063994 -0.150958)
(-0.0190867 0.000311247 0.00954582 -0.00576949 0.00614853 -0.208326)
(-0.00214851 0.000172283 0.00201395 -0.00637944 0.00711488 -0.206271)
(-0.000293536 4.17367e-05 0.000286105 -0.00653795 0.0073258 -0.205942)
(-3.97749e-05 5.45272e-06 5.32789e-05 -0.00655948 0.00736361 -0.206008)
(-5.12054e-06 1.06972e-06 2.6955e-05 -0.00655816 0.00736597 -0.206042)
(-1.20812e-06 -1.94401e-06 2.28699e-05 -0.00655244 0.00741155 -0.206052)
(-1.40423e-06 -2.09861e-06 1.76885e-05 -0.006546 0.00735201 -0.206045)
(-8.31148e-07 1.55375e-06 1.30456e-05 -0.00655167 0.00735848 -0.206046)
(-6.59862e-07 -2.69264e-07 1.18719e-05 -0.00653841 0.00740129 -0.206051)
(-1.36655e-06 -2.23117e-06 8.25638e-06 -0.00654973 0.0073558 -0.206044)
(-4.10367e-07 1.39733e-06 -2.96354e-06 -0.00653389 0.00736135 -0.206041)
(6.47969e-07 1.16883e-06 3.55553e-06 -0.00652724 0.00740514 -0.206043)
(-5.43697e-07 -2.37503e-06 1.04405e-05 -0.00654935 0.00735684 -0.206041)
(-1.05834e-06 9.35201e-07 9.80641e-08 -0.00654678 0.00734883 -0.206042)
(-1.28644e-07 1.18631e-06 -1.9957e-06 -0.0065397 0.00739985 -0.206048)
(-3.28736e-07 -1.95656e-06 -1.816e-06 -0.00654917 0.00735555 -0.206043)
(-7.87821e-07 -1.32139e-06 -4.02696e-06 -0.00654533 0.00735002 -0.206042)
(-4.89698e-07 -4.41441e-07 -1.24516e-05 -0.006539 0.00735991 -0.206042)
(-3.89757e-07 -1.24873e-06 -1.43937e-05 -0.00652962 0.00734795 -0.206035)
(-2.682e-07 2.48224e-06 -5.16816e-06 -0.0065261 0.00731347 -0.206032)
(-8.9157e-07 2.31812e-06 -6.29751e-06 -0.00655676 0.00736395 -0.206046)
(-2.09231e-06 8.98738e-07 -1.70467e-05 -0.00654548 0.00735303 -0.206046)
(-1.47277e-06 3.70384e-06 -3.07975e-05 -0.00654584 0.00740926 -0.206052)
(-4.10199e-06 -1.75289e-06 -3.29551e-05 -0.00654163 0.00741768 -0.206044)
(-3.95658e-05 -9.25083e-06 -4.26525e-05 -0.00653385 0.00735349 -0.206011)
(-0.000294085 -4.02379e-05 -0.000279459 -0.00653267 0.00732915 -0.205933)
(-0.00214886 -0.000170916 -0.00201575 -0.0063837 0.00711536 -0.206263)
(-0.0190858 -0.00031069 -0.00954974 -0.00577183 0.00614721 -0.208301)
(-0.0914156 -0.000614512 -0.0542482 -0.00557301 0.00640849 -0.150962)
(-0.0920463 0.000369994 0.0547772 -0.0035159 0.00401517 -0.150982)
(-0.0192621 0.000204744 0.00972298 -0.00357485 0.00381606 -0.208849)
(-0.00218266 0.000122134 0.00207906 -0.00402834 0.00444271 -0.206796)
(-0.000304584 3.07539e-05 0.000300481 -0.0041398 0.00462479 -0.206478)
(-4.23392e-05 4.31741e-06 5.41098e-05 -0.00415747 0.0046532 -0.20656)
(-5.59745e-06 9.28374e-07 2.69755e-05 -0.00415594 0.00465428 -0.20658)
(-1.34399e-06 -1.27885e-06 2.19544e-05 -0.00416113 0.00465868 -0.206586)
(-1.1717e-06 -1.25262e-06 1.7536e-05 -0.00414844 0.00464635 -0.206585)
(-7.93664e-07 8.7363e-07 1.35695e-05 -0.00415142 0.00464974 -0.206583)
(-1.05279e-06 -2.32746e-07 1.17393e-05 -0.00415482 0.00465373 -0.20657)
(-1.08357e-06 -5.84704e-07 2.20139e-07 -0.00415072 0.00465036 -0.206581)
(1.32457e-07 2.36399e-06 3.974e-06 -0.00413917 0.00465218 -0.206578)
(1.22165e-07 -4.61718e-09 1.1146e-05 -0.00415138 0.00469881 -0.206586)
(-7.37408e-07 -3.41916e-06 3.00317e-06 -0.00415013 0.00464963 -0.20658)
(-6.52999e-07 3.39815e-07 1.57574e-07 -0.00415238 0.00464377 -0.206581)
(-2.99918e-07 1.21823e-06 -1.35338e-06 -0.00415458 0.00465265 -0.206571)
(-7.01615e-07 -1.20562e-06 -2.35099e-06 -0.00414961 0.00464874 -0.206583)
(-5.51493e-07 -1.11367e-06 -1.11413e-05 -0.00414858 0.00464455 -0.206582)
(-1.29328e-07 1.03307e-06 -5.70901e-06 -0.00413634 0.0046162 -0.206558)
(-4.53382e-07 1.77495e-06 -8.12105e-06 -0.00414657 0.00468759 -0.206584)
(-2.10367e-07 5.59799e-07 -1.07363e-05 -0.0041296 0.00469147 -0.206584)
(-8.8838e-07 -7.21149e-07 -5.33219e-06 -0.00415481 0.00465503 -0.206583)
(-1.89687e-06 6.07907e-07 -1.71821e-05 -0.00414807 0.00464776 -0.206585)
(-1.43186e-06 3.72494e-06 -2.28986e-05 -0.00415827 0.00465721 -0.206585)
(-5.36791e-06 2.31739e-07 -2.62873e-05 -0.0041608 0.00470621 -0.206583)
(-4.23804e-05 -8.47902e-06 -5.96093e-05 -0.00414599 0.00469105 -0.20656)
(-0.000304279 -3.18216e-05 -0.000300517 -0.00412924 0.00458829 -0.206463)
(-0.00218285 -0.000121002 -0.00207296 -0.00403113 0.00444133 -0.206788)
(-0.0192622 -0.000203829 -0.00972479 -0.00357563 0.00381324 -0.208843)
(-0.0920451 -0.000370928 -0.0547769 -0.00351654 0.00402178 -0.150984)
(-0.0924319 0.00021693 0.0550909 -0.00222653 0.00251825 -0.151004)
(-0.0193651 0.000130265 0.00983857 -0.00222314 0.00237813 -0.209169)
(-0.00220446 8.46113e-05 0.00212578 -0.00254179 0.00279386 -0.207125)
(-0.00031256 2.20219e-05 0.000311136 -0.00262682 0.00292234 -0.206814)
(-4.42479e-05 3.25964e-06 5.65789e-05 -0.00264488 0.00294393 -0.206887)
(-6.00338e-06 1.06368e-06 2.72688e-05 -0.00264018 0.00294358 -0.206919)
(-1.48099e-06 -7.74957e-07 2.13577e-05 -0.00264278 0.00294693 -0.206923)
(-1.067e-06 -8.28682e-07 1.69617e-05 -0.00263525 0.00293906 -0.206923)
(-7.62859e-07 2.62642e-07 1.35623e-05 -0.00263663 0.00294097 -0.206923)
(-9.50942e-07 -2.03609e-07 1.152e-05 -0.00263945 0.00294544 -0.206911)
(-8.99346e-07 1.15345e-06 6.77659e-06 -0.00263693 0.00294182 -0.206919)
(-8.74179e-08 1.46594e-06 4.54464e-06 -0.00263656 0.00298418 -0.206923)
(-2.60255e-07 -1.25591e-06 4.53811e-06 -0.00264585 0.0029507 -0.206919)
(-6.46052e-07 -3.09887e-06 2.08197e-06 -0.00263612 0.00294173 -0.206919)
(-2.73926e-07 3.7487e-08 -8.55402e-08 -0.00263215 0.00290231 -0.206915)
(-3.35044e-07 1.80747e-06 -7.97795e-07 -0.002638 0.0029438 -0.206922)
(-9.23867e-07 -8.94197e-07 -2.55232e-06 -0.00263542 0.00294145 -0.206921)
(-4.62718e-07 1.21164e-06 -1.17132e-05 -0.00263832 0.00293806 -0.206921)
(1.90954e-07 1.34102e-08 -5.46321e-06 -0.00262035 0.00298401 -0.20692)
(-3.71183e-07 2.45382e-07 -9.15448e-07 -0.00263736 0.00290707 -0.206914)
(-5.8584e-07 1.33551e-06 -9.99106e-06 -0.00264132 0.00298556 -0.206925)
(-9.67749e-07 -1.45507e-06 -1.18281e-05 -0.00264 0.00294442 -0.20692)
(-1.53473e-06 4.31563e-07 -1.69932e-05 -0.00263499 0.00294064 -0.206923)
(-1.45159e-06 2.15942e-06 -2.18175e-05 -0.0026417 0.0029467 -0.206922)
(-6.12487e-06 -8.57709e-08 -2.65501e-05 -0.00265133 0.00295317 -0.206916)
(-4.44533e-05 -4.2753e-06 -6.22051e-05 -0.00264311 0.00294389 -0.206895)
(-0.000311946 -2.32491e-05 -0.000311361 -0.00261952 0.00296165 -0.206806)
(-0.00220449 -8.54905e-05 -0.0021192 -0.00254465 0.0027912 -0.207118)
(-0.0193659 -0.000128967 -0.00984011 -0.00222218 0.00237551 -0.209167)
(-0.0924326 -0.000217337 -0.0550923 -0.00222267 0.00252309 -0.151006)
(-0.092672 0.000125713 0.0552734 -0.00140793 0.00153223 -0.151016)
(-0.0194242 8.16292e-05 0.0099105 -0.00139481 0.00147894 -0.209361)
(-0.00221788 5.71817e-05 0.00215845 -0.00161376 0.00174826 -0.207327)
(-0.000318207 1.47124e-05 0.000318699 -0.00167744 0.00183774 -0.207021)
(-4.54998e-05 2.29181e-06 5.66145e-05 -0.00168599 0.00181655 -0.207104)
(-6.26052e-06 1.74379e-06 2.78591e-05 -0.00168906 0.00185222 -0.207128)
(-1.68495e-06 -3.82066e-07 2.09588e-05 -0.00168976 0.001854 -0.207131)
(-1.04462e-06 -5.23148e-07 1.64666e-05 -0.00168528 0.00184993 -0.207133)
(-7.40994e-07 9.99998e-08 1.31384e-05 -0.00168581 0.00185159 -0.207133)
(-8.3912e-07 -2.4421e-07 1.11041e-05 -0.0016865 0.00185392 -0.207132)
(-7.53892e-07 3.38136e-07 7.21964e-06 -0.00168729 0.00185139 -0.207129)
(-2.06922e-07 9.83522e-07 5.22806e-06 -0.0016978 0.00185613 -0.207128)
(-6.57332e-07 -3.1335e-07 4.47278e-06 -0.00169198 0.00185783 -0.207126)
(-6.05775e-07 -1.32777e-06 -5.51456e-06 -0.00168574 0.00185229 -0.207129)
(2.5702e-07 1.16584e-07 -9.09031e-08 -0.00167401 0.00184924 -0.207125)
(-4.1599e-07 6.50932e-07 6.4031e-06 -0.00168598 0.00185444 -0.207131)
(-9.61617e-07 -1.45725e-06 -2.79373e-06 -0.00168492 0.00185264 -0.20713)
(-4.4454e-07 2.02264e-06 -5.0406e-06 -0.00168144 0.00181578 -0.207126)
(-1.65549e-07 1.41528e-06 -1.18915e-05 -0.00168741 0.00189651 -0.207133)
(-9.94395e-08 -2.08477e-06 -7.19869e-06 -0.00167714 0.00185274 -0.207123)
(-4.53082e-07 4.18908e-08 -2.93387e-06 -0.00169116 0.00182439 -0.207125)
(-1.13421e-06 6.882e-08 -1.21717e-05 -0.00169023 0.00185214 -0.207128)
(-1.36958e-06 4.48788e-07 -1.67822e-05 -0.00168513 0.00185163 -0.207132)
(-1.50908e-06 1.19281e-06 -2.09971e-05 -0.00168949 0.00185439 -0.20713)
(-6.4752e-06 -3.36723e-07 -2.66154e-05 -0.00169474 0.00185824 -0.207124)
(-4.59726e-05 -3.16559e-06 -5.73305e-05 -0.00169192 0.00185242 -0.207102)
(-0.000317721 -1.68509e-05 -0.000319876 -0.00168388 0.00184237 -0.207011)
(-0.00221761 -5.77197e-05 -0.00215861 -0.00161879 0.00174513 -0.207322)
(-0.0194253 -7.90947e-05 -0.00991218 -0.00139385 0.00147706 -0.209361)
(-0.09267 -0.000125174 -0.0552764 -0.00141224 0.00157365 -0.151023)
(-0.0928186 7.22306e-05 0.0553736 -0.000895827 0.000965623 -0.151025)
(-0.0194578 4.84074e-05 0.00996372 -0.000890644 0.000907557 -0.209477)
(-0.00222607 3.74565e-05 0.00218055 -0.00104015 0.00107828 -0.207452)
(-0.000322026 1.09247e-05 0.00031772 -0.0010874 0.00113888 -0.207148)
(-4.61859e-05 1.46124e-06 5.73139e-05 -0.00108639 0.00114783 -0.207231)
(-6.44862e-06 4.63498e-07 3.47774e-05 -0.00109836 0.00114707 -0.207257)
(-1.95018e-06 -2.86564e-08 2.07664e-05 -0.00109715 0.00114864 -0.20726)
(-1.03294e-06 -2.66509e-07 1.61694e-05 -0.00109438 0.00114687 -0.207262)
(-7.32872e-07 1.96744e-07 1.31214e-05 -0.00109471 0.00114845 -0.207263)
(-8.46677e-07 -3.58069e-07 1.08777e-05 -0.0010954 0.00115062 -0.207261)
(-6.3497e-07 -8.48121e-07 7.3839e-06 -0.00109729 0.0011469 -0.207258)
(-1.59586e-07 7.89471e-07 5.69088e-06 -0.0010964 0.00111698 -0.207253)
(-6.8429e-07 7.66538e-07 4.29676e-06 -0.00109819 0.00115118 -0.207256)
(-6.21048e-07 5.21134e-08 6.47593e-07 -0.0010949 0.00114885 -0.207258)
(1.2525e-07 1.27266e-07 1.53093e-07 -0.00109637 0.0011826 -0.207258)
(-6.15046e-07 -2.99713e-07 2.14219e-07 -0.00109635 0.00115043 -0.207257)
(-7.70721e-07 -1.58538e-07 -9.80166e-06 -0.00109456 0.00114971 -0.207258)
(6.42174e-08 1.13721e-06 -4.65213e-06 -0.00108164 0.00114858 -0.207255)
(-4.85537e-07 1.01095e-06 1.56354e-06 -0.00110306 0.00115691 -0.207258)
(-5.68415e-07 -5.13518e-07 -1.39248e-05 -0.00109768 0.00118483 -0.207257)
(-1.35161e-07 -1.34502e-06 -9.53087e-06 -0.00108687 0.0011539 -0.207252)
(-9.38011e-07 -6.49347e-07 -5.76631e-06 -0.00110126 0.00114712 -0.207257)
(-1.39937e-06 6.21389e-07 -1.64921e-05 -0.00109427 0.00114879 -0.207261)
(-1.60569e-06 5.89985e-07 -2.05977e-05 -0.00109749 0.00114909 -0.207259)
(-6.93587e-06 -6.47792e-07 -2.68275e-05 -0.00109983 0.00115095 -0.207254)
(-4.712e-05 -2.6424e-06 -6.51194e-05 -0.00110193 0.00114664 -0.20723)
(-0.00032124 -1.21152e-05 -0.00032605 -0.00108208 0.0011076 -0.207133)
(-0.00222515 -3.75132e-05 -0.00217436 -0.00103694 0.00104168 -0.207443)
(-0.0194589 -4.65794e-05 -0.00995544 -0.000890264 0.000907053 -0.209476)
(-0.0928144 -7.10739e-05 -0.055382 -0.000908925 0.000965432 -0.151035)
(-0.0928998 4.05248e-05 0.0554409 -0.000606736 0.000609945 -0.151042)
(-0.0194772 2.69988e-05 0.00997913 -0.000589749 0.00053505 -0.209544)
(-0.00223013 2.32757e-05 0.00219494 -0.000693929 0.000639145 -0.207526)
(-0.000324529 7.78628e-06 0.00032858 -0.000730641 0.000678075 -0.207224)
(-4.72e-05 3.76539e-07 5.85944e-05 -0.00074181 0.000716687 -0.207302)
(-6.52152e-06 -3.12868e-07 2.81102e-05 -0.000741709 0.000681221 -0.207335)
(-1.86975e-06 4.39613e-07 2.08073e-05 -0.000737244 0.000682926 -0.207339)
(-1.04265e-06 -8.13357e-08 1.60473e-05 -0.000735577 0.000682527 -0.207341)
(-7.57393e-07 5.27232e-08 1.32935e-05 -0.000735981 0.000683779 -0.207341)
(-9.9689e-07 -6.70853e-07 1.07638e-05 -0.000737715 0.000685117 -0.20733)
(-5.05283e-07 2.23308e-07 6.30266e-07 -0.000740848 0.000681683 -0.207337)
(1.29467e-07 9.118e-07 6.10246e-06 -0.000726474 0.000685489 -0.20733)
(-8.11869e-07 -1.87664e-07 1.08708e-05 -0.000737506 0.000685229 -0.207335)
(-7.55452e-07 -1.12005e-06 4.50505e-07 -0.00073609 0.000684145 -0.207336)
(2.18938e-07 -1.47823e-07 3.6932e-07 -0.000739062 0.000650031 -0.207333)
(-4.6488e-07 9.49696e-07 4.9077e-07 -0.000739049 0.000684214 -0.207326)
(-7.45325e-07 1.41065e-06 -3.17884e-06 -0.000736771 0.000685014 -0.207327)
(-2.23187e-07 7.77632e-07 -4.24523e-06 -0.000733127 0.000720139 -0.207337)
(-4.24942e-07 -1.61671e-06 -5.01448e-06 -0.000741536 0.000689334 -0.207334)
(-5.21521e-07 9.27179e-07 -7.40615e-06 -0.000739202 0.00065188 -0.207332)
(-4.61296e-07 -8.18793e-07 -9.73243e-06 -0.000736088 0.000723137 -0.207334)
(-7.84437e-07 -1.61768e-06 -1.26252e-05 -0.000734863 0.000648181 -0.207333)
(-1.16698e-06 1.16332e-06 -1.6339e-05 -0.000736129 0.000684591 -0.207338)
(-1.76088e-06 2.18167e-07 -2.0518e-05 -0.000738372 0.00068296 -0.207338)
(-7.1202e-06 -1.25468e-06 -2.70346e-05 -0.000738596 0.000684371 -0.207332)
(-4.79084e-05 2.99796e-08 -6.58382e-05 -0.000734901 0.000647546 -0.207305)
(-0.000323792 -5.89994e-06 -0.000337297 -0.000719786 0.000714717 -0.207213)
(-0.00222922 -2.50469e-05 -0.00218896 -0.000680804 0.000638087 -0.207517)
(-0.0194775 -2.75548e-05 -0.00997351 -0.000590651 0.000534677 -0.209542)
(-0.0928999 -3.99233e-05 -0.0554376 -0.000604312 0.000572074 -0.151045)
(-0.0929483 2.09109e-05 0.0554747 -0.000435748 0.000263006 -0.151045)
(-0.0194876 1.54129e-05 0.00999356 -0.000420439 0.000279977 -0.209584)
(-0.00223252 1.253e-05 0.00220364 -0.000498477 0.000336108 -0.207569)
(-0.000326128 2.67898e-06 0.0003323 -0.000528898 0.000357208 -0.207258)
(-4.75955e-05 -6.47931e-07 5.74351e-05 -0.000539848 0.000324559 -0.207355)
(-6.39709e-06 1.38797e-06 2.85345e-05 -0.000529822 0.000324594 -0.207378)
(-1.94793e-06 1.23102e-06 2.10044e-05 -0.000532849 0.000359658 -0.207384)
(-1.14618e-06 2.6237e-08 1.60318e-05 -0.000532016 0.000359926 -0.207386)
(-8.49445e-07 -1.19452e-07 1.30123e-05 -0.000532499 0.000360791 -0.207385)
(-7.70641e-07 -1.33676e-06 1.01805e-05 -0.000533128 0.000359922 -0.207384)
(-2.95709e-07 1.38083e-06 7.71542e-06 -0.000529664 0.000325448 -0.207379)
(-2.352e-07 1.46556e-06 6.52581e-06 -0.000532056 0.000396693 -0.207378)
(-1.10545e-06 -1.18315e-06 4.09213e-06 -0.000534291 0.000362259 -0.207379)
(-6.34072e-07 -2.7568e-07 -6.45167e-06 -0.000532401 0.000361221 -0.207381)
(5.61275e-07 -4.88006e-07 -7.92587e-08 -0.000524668 0.000360606 -0.207376)
(-2.88562e-07 7.53287e-08 7.21082e-06 -0.000535418 0.000357997 -0.207381)
(-8.22866e-07 1.05725e-06 -2.49263e-06 -0.000533349 0.000360837 -0.207381)
(-5.38983e-07 4.59003e-07 -3.58172e-06 -0.00053827 0.000363261 -0.207382)
(-4.46795e-07 -1.59136e-07 -1.15914e-05 -0.000536494 0.000362752 -0.20737)
(-3.95601e-07 4.33912e-07 -7.28515e-06 -0.000523527 0.000362786 -0.207375)
(-6.19933e-07 -6.05407e-07 -1.02406e-05 -0.000540013 0.000364343 -0.207369)