/*--------------------------------*- C++ -*----------------------------------*\
| =========                 |                                                 |
| \\      /  F ield         | OpenFOAM: The Open Source CFD Toolbox           |
|  \\    /   O peration     | Version:  2106                                  |
|   \\  /    A nd           | Website:  www.openfoam.com                      |
|    \\/     M anipulation  |                                                 |
\*---------------------------------------------------------------------------*/
FoamFile
{
    version     2.0;
    format      ascii;
    arch        "LSB;label=32;scalar=64";
    class       volSymmTensorField;
    location    "765";
    object      sigma;
}
// * * * * * * * * * * * * * * * * * * * * * * * * * * * * * * * * * * * * * //

dimensions      [1 -1 -2 0 0 0 0];

internalField   nonuniform List<symmTensor> 
9000
(
(5.39355e+07 -135932 2.4845e+07 2.21918e+07 3.16776e+07 8.49942e+07)
(9.63408e+07 277442 4.84076e+06 2.4274e+07 3.35973e+07 6.9011e+07)
(1.10954e+08 173201 1.32355e+06 2.61169e+07 3.56751e+07 8.12462e+07)
(1.12755e+08 26119.2 232982 2.62567e+07 3.61336e+07 8.3312e+07)
(1.1297e+08 -4100.29 20519.9 2.62935e+07 3.61473e+07 8.33844e+07)
(1.12978e+08 -1061.3 9118 2.63689e+07 3.60381e+07 8.32243e+07)
(1.12976e+08 -18.4148 13171.4 2.63016e+07 3.61224e+07 8.32802e+07)
(1.12985e+08 -3052.1 4006.51 2.63777e+07 3.60387e+07 8.32292e+07)
(1.12982e+08 3327.84 16148.8 2.6376e+07 3.6037e+07 8.32226e+07)
(1.12997e+08 3420.22 -3830.28 2.63038e+07 3.61337e+07 8.33528e+07)
(1.13002e+08 -3231.54 -25284.5 2.63652e+07 3.60732e+07 8.32876e+07)
(1.1298e+08 -277.999 20503.3 2.64348e+07 3.59749e+07 8.314e+07)
(1.12991e+08 2812.36 30397 2.63026e+07 3.61275e+07 8.33315e+07)
(1.12989e+08 427.421 -15573.2 2.62913e+07 3.61321e+07 8.33349e+07)
(1.13005e+08 444.995 957.626 2.63613e+07 3.60778e+07 8.32982e+07)
(1.12999e+08 -612.329 15719.6 2.63024e+07 3.61346e+07 8.33518e+07)
(1.12989e+08 174.712 -18736.9 2.62917e+07 3.61316e+07 8.33319e+07)
(1.13003e+08 390.248 -1610.36 2.636e+07 3.60789e+07 8.33034e+07)
(1.12998e+08 -3438 -12793.9 2.63068e+07 3.61303e+07 8.3343e+07)
(1.12988e+08 -3288.41 -13755 2.6438e+07 3.59798e+07 8.31679e+07)
(1.1298e+08 3001.96 20472.1 2.63786e+07 3.60335e+07 8.32055e+07)
(1.12992e+08 3372.4 3484.61 2.62986e+07 3.61304e+07 8.33396e+07)
(1.13e+08 -3033.09 -16539.4 2.63033e+07 3.61351e+07 8.33559e+07)
(1.12986e+08 -418.037 -13704.2 2.63727e+07 3.60409e+07 8.32373e+07)
(1.12989e+08 855.769 -12500.7 2.6301e+07 3.61276e+07 8.33334e+07)
(1.12958e+08 1001.18 -48087.7 2.6366e+07 3.60539e+07 8.32696e+07)
(1.12755e+08 -23567.6 -226972 2.63209e+07 3.60692e+07 8.32355e+07)
(1.10943e+08 -173087 -1.3041e+06 2.61092e+07 3.56692e+07 8.12223e+07)
(9.63382e+07 -276954 -4.83991e+06 2.42737e+07 3.35968e+07 6.90091e+07)
(5.39339e+07 135895 -2.48455e+07 2.21902e+07 3.16753e+07 8.49894e+07)
(4.17511e+07 -5810.93 2.39767e+07 2.85099e+07 3.51728e+07 1.25597e+07)
(7.28746e+07 352093 4.13966e+06 2.80981e+07 3.70121e+07 -8.94504e+06)
(8.60173e+07 223203 795671 3.05973e+07 3.93263e+07 -1.43078e+06)
(8.73506e+07 36607.9 118380 3.05057e+07 3.99236e+07 -568352)
(8.74936e+07 -3261.24 16681.4 3.05448e+07 3.99406e+07 -541681)
(8.76098e+07 -1684.79 16158.7 3.07628e+07 3.99061e+07 -445217)
(8.75304e+07 261.496 13329.8 3.0596e+07 3.99119e+07 -531541)
(8.7625e+07 -884.326 -1366.87 3.07888e+07 3.99085e+07 -430044)
(8.76222e+07 1064.32 17661.6 3.07851e+07 3.99049e+07 -436441)
(8.75213e+07 3726.41 17472.1 3.05737e+07 3.99185e+07 -539424)
(8.75805e+07 1714.77 -5895.04 3.0683e+07 4.00088e+07 -465330)
(8.76869e+07 -3035.82 2246.13 3.0903e+07 3.99905e+07 -353862)
(8.75205e+07 -3604.44 12261.2 3.05736e+07 3.99095e+07 -542072)
(8.75401e+07 3254.34 927.296 3.06048e+07 3.98398e+07 -512778)
(8.7574e+07 1935.61 -754.855 3.06699e+07 4.00157e+07 -473709)
(8.75191e+07 -4650.58 -1067.16 3.05694e+07 3.99208e+07 -543971)
(8.75403e+07 2664.6 -427.627 3.06056e+07 3.98392e+07 -513975)
(8.7574e+07 1963.23 -1795.34 3.06678e+07 4.00164e+07 -471137)
(8.75247e+07 -1108.69 -12712.2 3.05821e+07 3.99135e+07 -538132)
(8.76832e+07 -991.377 -14413.1 3.08957e+07 4.00011e+07 -356399)
(8.76349e+07 -2143.73 2419.11 3.08059e+07 3.98985e+07 -417759)
(8.75139e+07 991.794 2546.38 3.05606e+07 3.99134e+07 -550228)
(8.75197e+07 -560.09 -19417.8 3.05707e+07 3.99211e+07 -541758)
(8.76181e+07 -897.227 -11835.7 3.0773e+07 3.991e+07 -435485)
(8.75142e+07 1764.94 -14988 3.05667e+07 3.99083e+07 -546369)
(8.75959e+07 5122.73 -26230.8 3.07549e+07 3.99319e+07 -431124)
(8.74161e+07 -37895.6 -107876 3.06286e+07 4.00077e+07 -487105)
(8.60343e+07 -225769 -796686 3.06331e+07 3.92437e+07 -1.4131e+06)
(7.2876e+07 -350371 -4.14101e+06 2.81004e+07 3.70111e+07 -8.94289e+06)
(4.17503e+07 5797.68 -2.3977e+07 2.85066e+07 3.51675e+07 1.2558e+07)
(4.53338e+07 604968 2.41143e+07 5.50067e+07 3.0005e+07 5.56021e+06)
(8.00971e+07 449548 4.05703e+06 5.75572e+07 3.12854e+07 -1.55659e+07)
(9.39294e+07 268004 705582 6.21721e+07 3.33852e+07 -8.27533e+06)
(9.53065e+07 50671.4 87293.6 6.23348e+07 3.39924e+07 -7.57746e+06)
(9.54418e+07 -455.275 28915.6 6.23825e+07 3.40147e+07 -7.55974e+06)
(9.5522e+07 -2660.79 17923.8 6.251e+07 3.40712e+07 -7.46641e+06)
(9.54673e+07 1125.01 12876.9 6.24148e+07 3.39831e+07 -7.54755e+06)
(9.55184e+07 2311.66 11377 6.25085e+07 3.41214e+07 -7.48119e+06)
(9.55135e+07 -1475.44 4101.51 6.24989e+07 3.41177e+07 -7.48848e+06)
(9.54671e+07 -1433.62 4818.29 6.24118e+07 3.3994e+07 -7.55207e+06)
(9.54769e+07 1661.71 9562.69 6.24285e+07 3.39809e+07 -7.5341e+06)
(9.55322e+07 -1392.2 2458.17 6.25306e+07 3.41081e+07 -7.45754e+06)
(9.54955e+07 -1775.72 -10285.2 6.24515e+07 3.39371e+07 -7.49985e+06)
(9.55072e+07 1983.89 303.78 6.24871e+07 3.39954e+07 -7.50263e+06)
(9.54726e+07 269.167 6228.11 6.24218e+07 3.39892e+07 -7.54026e+06)
(9.54644e+07 -550.267 -8782.45 6.24089e+07 3.3997e+07 -7.55468e+06)
(9.55057e+07 238.625 89.8647 6.2486e+07 3.39948e+07 -7.50545e+06)
(9.54729e+07 147.086 5951.33 6.24204e+07 3.3989e+07 -7.54049e+06)
(9.54689e+07 1204.48 1446.56 6.24176e+07 3.39889e+07 -7.54887e+06)
(9.55288e+07 1446.51 -474.361 6.2525e+07 3.41107e+07 -7.46331e+06)
(9.55268e+07 -2847.26 -11066 6.25221e+07 3.41183e+07 -7.46741e+06)
(9.54797e+07 -1312.88 -12060.7 6.24291e+07 3.39418e+07 -7.52994e+06)
(9.54654e+07 2630.27 -6703.32 6.24105e+07 3.39976e+07 -7.55387e+06)
(9.55095e+07 -2048.51 -10849.1 6.24898e+07 3.41213e+07 -7.4901e+06)
(9.54759e+07 2086.22 -15390.8 6.24258e+07 3.39367e+07 -7.52749e+06)
(9.54941e+07 2390.68 -23740.7 6.2477e+07 3.41426e+07 -7.48729e+06)
(9.5323e+07 -52804.9 -97334.4 6.23643e+07 3.39731e+07 -7.55067e+06)
(9.39694e+07 -267866 -709114 6.22493e+07 3.33751e+07 -8.22948e+06)
(8.01007e+07 -449825 -4.0516e+06 5.75612e+07 3.12844e+07 -1.55614e+07)
(4.53316e+07 -604857 -2.41142e+07 5.49983e+07 2.99984e+07 5.55587e+06)
(4.97611e+07 936521 2.49514e+07 7.38578e+07 2.11032e+07 1.24037e+07)
(8.85268e+07 454093 4.19768e+06 7.8132e+07 2.18037e+07 -8.60795e+06)
(1.03358e+08 255332 767327 8.41468e+07 2.35276e+07 -653336)
(1.04869e+08 51822.2 97916.2 8.45314e+07 2.39807e+07 150925)
(1.05016e+08 -394.534 21267 8.45777e+07 2.40047e+07 168031)
(1.05074e+08 -3486.09 18205.9 8.46577e+07 2.39514e+07 234229)
(1.05051e+08 652.817 17244.5 8.46217e+07 2.3945e+07 196005)
(1.05033e+08 793.703 9813.37 8.45949e+07 2.39885e+07 166563)
(1.05054e+08 256.206 6454.28 8.46183e+07 2.39505e+07 206628)
(1.05043e+08 172.097 6051.84 8.46065e+07 2.39882e+07 177465)
(1.05045e+08 -1025.64 7618.26 8.46122e+07 2.39813e+07 182346)
(1.05051e+08 388.699 -2328.63 8.46174e+07 2.39768e+07 201646)
(1.05072e+08 3067.28 -1836.13 8.46603e+07 2.39887e+07 218304)
(1.05052e+08 533.755 5391.1 8.46281e+07 2.40737e+07 183566)
(1.05044e+08 -1793.77 -383.321 8.4613e+07 2.39886e+07 180702)
(1.0504e+08 2115.13 -1972.24 8.46034e+07 2.39915e+07 173271)
(1.0505e+08 -313.181 -126.093 8.46257e+07 2.4073e+07 179769)
(1.05045e+08 -2183.04 -151.092 8.46129e+07 2.39885e+07 180268)
(1.05053e+08 -807.603 -749.592 8.46193e+07 2.39835e+07 200268)
(1.05039e+08 -386.5 -2960.36 8.46039e+07 2.39824e+07 175859)
(1.05047e+08 577.626 -13579.6 8.4611e+07 2.39832e+07 193614)
(1.05072e+08 814.238 -10228.5 8.46535e+07 2.39856e+07 221009)
(1.05041e+08 -648.871 -3543.56 8.46066e+07 2.39928e+07 174218)
(1.05041e+08 -1980.31 -15690.4 8.4603e+07 2.39527e+07 182682)
(1.05081e+08 2507.3 -15630.4 8.4668e+07 2.39463e+07 245166)
(1.05013e+08 99.6841 -17974.7 8.45714e+07 2.4004e+07 167594)
(1.04878e+08 -50398.4 -98758.4 8.45484e+07 2.39676e+07 165973)
(1.03381e+08 -254072 -771236 8.41822e+07 2.3601e+07 -616694)
(8.85307e+07 -456854 -4.19957e+06 7.81357e+07 2.18029e+07 -8.60362e+06)
(4.97678e+07 -936161 -2.49504e+07 7.38716e+07 2.10636e+07 1.242e+07)
(5.26186e+07 917439 2.59834e+07 8.5634e+07 1.36104e+07 1.8453e+07)
(9.39601e+07 397604 4.41117e+06 9.09625e+07 1.38115e+07 -3.00229e+06)
(1.09652e+08 212791 855671 9.77961e+07 1.5162e+07 5.542e+06)
(1.11313e+08 44527.5 108446 9.83889e+07 1.54555e+07 6.48915e+06)
(1.11488e+08 2782.05 20784.7 9.8456e+07 1.54504e+07 6.52582e+06)
(1.11515e+08 -2440.78 12312.2 9.84948e+07 1.55249e+07 6.52554e+06)
(1.11527e+08 -1464.5 16661 9.85051e+07 1.54336e+07 6.54759e+06)
(1.11498e+08 1151.18 9222.96 9.84572e+07 1.54721e+07 6.50632e+06)
(1.11517e+08 -82.5416 7092.35 9.84888e+07 1.54728e+07 6.53065e+06)
(1.11511e+08 -1138.36 10930.1 9.8467e+07 1.54668e+07 6.53077e+06)
(1.11516e+08 -1067.94 6369.76 9.84824e+07 1.54354e+07 6.53503e+06)
(1.11505e+08 2047.52 1897.35 9.84644e+07 1.54669e+07 6.52243e+06)
(1.11504e+08 2538.38 -1336.07 9.84666e+07 1.55172e+07 6.50965e+06)
(1.11494e+08 -626.978 1178.7 9.84424e+07 1.548e+07 6.50159e+06)
(1.11505e+08 -1105.01 407.245 9.84662e+07 1.54686e+07 6.51691e+06)
(1.11501e+08 1311.25 -2339.23 9.8456e+07 1.54693e+07 6.51144e+06)
(1.11492e+08 -170.895 -457.222 9.84405e+07 1.54794e+07 6.49851e+06)
(1.11505e+08 -1778.67 522.493 9.84662e+07 1.54685e+07 6.51598e+06)
(1.11515e+08 -886.271 -1757.12 9.84718e+07 1.54659e+07 6.54081e+06)
(1.11501e+08 -53.6938 -3954.74 9.84602e+07 1.54682e+07 6.5116e+06)
(1.11503e+08 1417.04 -7557.55 9.84622e+07 1.54711e+07 6.51639e+06)
(1.11514e+08 970.28 -9013.84 9.84839e+07 1.54919e+07 6.52651e+06)
(1.11502e+08 -592.328 -13053.9 9.84624e+07 1.54711e+07 6.5115e+06)
(1.11512e+08 -513.907 -15666.3 9.84806e+07 1.54706e+07 6.52567e+06)
(1.11527e+08 1286.64 -10426.7 9.85081e+07 1.54875e+07 6.54719e+06)
(1.11476e+08 -2476.1 -18277.4 9.84372e+07 1.5481e+07 6.50996e+06)
(1.11317e+08 -44587.4 -109462 9.83949e+07 1.54463e+07 6.50004e+06)
(1.09646e+08 -211308 -858032 9.77818e+07 1.51691e+07 5.53904e+06)
(9.3964e+07 -398182 -4.41764e+06 9.09652e+07 1.38106e+07 -2.99922e+06)
(5.26308e+07 -916421 -2.59769e+07 8.56662e+07 1.36053e+07 1.84735e+07)
(5.41911e+07 721342 2.68853e+07 9.27738e+07 8.49457e+06 2.19399e+07)
(9.69925e+07 314258 4.61814e+06 9.87886e+07 8.44876e+06 -81918.8)
(1.13369e+08 165026 934382 1.06194e+08 9.38125e+06 8.9331e+06)
(1.15118e+08 38034.6 120234 1.06899e+08 9.654e+06 9.92504e+06)
(1.15314e+08 4063.96 24821.6 1.06983e+08 9.67506e+06 9.96702e+06)
(1.15314e+08 -1292.05 15448.1 1.0696e+08 9.71599e+06 9.93297e+06)
(1.15347e+08 -1992.4 12772.6 1.07014e+08 9.67779e+06 9.97469e+06)
(1.15325e+08 788.857 12795 1.06972e+08 9.67147e+06 9.94852e+06)
(1.15323e+08 -863.511 7056.22 1.06974e+08 9.70809e+06 9.94123e+06)
(1.15336e+08 -1481.45 2829.05 1.06986e+08 9.64483e+06 9.96642e+06)
(1.15343e+08 -846.892 5726.18 1.07004e+08 9.66557e+06 9.97207e+06)
(1.15344e+08 69.186 5669.04 1.06995e+08 9.64367e+06 9.98764e+06)
(1.15326e+08 2496.37 -312.652 1.06966e+08 9.64946e+06 9.95565e+06)
(1.15322e+08 442.151 1796.23 1.06962e+08 9.67803e+06 9.94574e+06)
(1.15329e+08 -1312.76 487.496 1.06976e+08 9.66876e+06 9.95576e+06)
(1.15335e+08 958.174 -1931.26 1.06983e+08 9.64479e+06 9.96609e+06)
(1.15321e+08 419.292 -802.278 1.06961e+08 9.6772e+06 9.94432e+06)
(1.15328e+08 -2195.26 -228.366 1.06976e+08 9.66915e+06 9.95406e+06)
(1.15344e+08 -767.538 -2341.55 1.06993e+08 9.64369e+06 9.98618e+06)
(1.15325e+08 692.418 -3973.09 1.0697e+08 9.66835e+06 9.95146e+06)
(1.15333e+08 1528.06 -11289.7 1.06976e+08 9.66989e+06 9.9691e+06)
(1.15332e+08 973.4 -8388.11 1.06984e+08 9.67496e+06 9.95663e+06)
(1.15325e+08 -211.341 -4299.96 1.06973e+08 9.67078e+06 9.94917e+06)
(1.15339e+08 347.409 -16288.9 1.06991e+08 9.68392e+06 9.97404e+06)
(1.15335e+08 220.671 -14354.4 1.06993e+08 9.68499e+06 9.96375e+06)
(1.15299e+08 -4265.27 -18461 1.06952e+08 9.67585e+06 9.95272e+06)
(1.15138e+08 -37336.4 -126024 1.06922e+08 9.62363e+06 9.96698e+06)
(1.13357e+08 -163332 -935544 1.06178e+08 9.38585e+06 8.91321e+06)
(9.69971e+07 -313509 -4.61946e+06 9.87916e+07 8.44804e+06 -77519.8)
(5.41961e+07 -720853 -2.68784e+07 9.27848e+07 8.52833e+06 2.19426e+07)
(5.50567e+07 497776 2.75478e+07 9.71405e+07 5.28178e+06 2.38046e+07)
(9.86731e+07 231240 4.78879e+06 1.03575e+08 5.15422e+06 1.3121e+06)
(1.15527e+08 122708 993641 1.11399e+08 5.83624e+06 1.06147e+07)
(1.1735e+08 30075.2 141344 1.12174e+08 6.01906e+06 1.16653e+07)
(1.17551e+08 3504.87 26306 1.12246e+08 6.06745e+06 1.17065e+07)
(1.1756e+08 -515.974 10766.7 1.1223e+08 6.0455e+06 1.16819e+07)
(1.17586e+08 -1391.03 12662.9 1.12272e+08 6.06572e+06 1.17131e+07)
(1.17572e+08 -715.188 12572.5 1.12249e+08 6.03481e+06 1.16927e+07)
(1.17567e+08 -132.389 3035.49 1.12239e+08 6.03912e+06 1.1686e+07)
(1.17584e+08 -103.907 6467.86 1.12273e+08 6.03368e+06 1.17063e+07)
(1.17575e+08 -913.874 4983 1.12259e+08 6.06148e+06 1.16932e+07)
(1.17586e+08 -905.458 -1655.3 1.12272e+08 6.03252e+06 1.17127e+07)
(1.17589e+08 1487.83 4687.03 1.12274e+08 6.01607e+06 1.17172e+07)
(1.17571e+08 270.532 5540.89 1.12245e+08 6.03899e+06 1.16938e+07)
(1.17575e+08 -465.847 -3461.49 1.12252e+08 6.03296e+06 1.16981e+07)
(1.17586e+08 743.705 -1439.38 1.12273e+08 6.03328e+06 1.17103e+07)
(1.17571e+08 -200.17 2838.26 1.12245e+08 6.03825e+06 1.1693e+07)
(1.17575e+08 -1395.64 -5161.13 1.12253e+08 6.03336e+06 1.16972e+07)
(1.17583e+08 -997.98 -2595.84 1.12268e+08 6.03219e+06 1.17073e+07)
(1.17581e+08 -448.439 140.448 1.12261e+08 6.01085e+06 1.1709e+07)
(1.17585e+08 2482.82 -7009.53 1.12262e+08 6.01374e+06 1.1722e+07)
(1.17568e+08 1545.2 -7715.89 1.12246e+08 6.06867e+06 1.16837e+07)
(1.17571e+08 -681.504 -12267 1.1225e+08 6.03498e+06 1.1692e+07)
(1.17579e+08 1044.06 -16240.3 1.12261e+08 6.03968e+06 1.17028e+07)
(1.17579e+08 -703.343 -9918.45 1.12264e+08 6.04964e+06 1.1704e+07)
(1.17553e+08 -4540.9 -23735.6 1.12247e+08 6.01518e+06 1.17114e+07)
(1.1737e+08 -27928 -142687 1.12201e+08 6.01457e+06 1.17035e+07)
(1.15527e+08 -121619 -991565 1.11396e+08 5.83803e+06 1.06172e+07)
(9.86771e+07 -231001 -4.79024e+06 1.03577e+08 5.15313e+06 1.31795e+06)
(5.50563e+07 -498446 -2.75449e+07 9.71341e+07 5.28786e+06 2.37995e+07)
(5.55664e+07 316268 2.7986e+07 9.98533e+07 3.30121e+06 2.48525e+07)
(9.96495e+07 160561 4.92433e+06 1.06519e+08 3.1718e+06 2.02813e+06)
(1.16817e+08 88874.3 1.03892e+06 1.14634e+08 3.6703e+06 1.15175e+07)
(1.18702e+08 21530.4 147591 1.15481e+08 3.77911e+06 1.26162e+07)
(1.18909e+08 2812.85 27484.6 1.15546e+08 3.79861e+06 1.2658e+07)
(1.18928e+08 551.829 13905.1 1.15548e+08 3.79983e+06 1.26411e+07)
(1.1893e+08 -1002.84 11797.7 1.1555e+08 3.82334e+06 1.26359e+07)
(1.18936e+08 -1082.6 9124.86 1.1556e+08 3.79263e+06 1.26456e+07)
(1.18934e+08 801.524 6729.76 1.15554e+08 3.79597e+06 1.26426e+07)
(1.18938e+08 -138.903 6124.27 1.15565e+08 3.81805e+06 1.26443e+07)
(1.18935e+08 -1150.98 4259.16 1.15557e+08 3.79458e+06 1.26452e+07)
(1.18945e+08 720.832 -1528.78 1.15574e+08 3.79745e+06 1.2656e+07)
(1.18948e+08 602.957 1834.17 1.1558e+08 3.82004e+06 1.26574e+07)
(1.18937e+08 -1225.19 5385.89 1.15559e+08 3.79512e+06 1.26485e+07)
(1.18938e+08 482.435 50.5876 1.15561e+08 3.79099e+06 1.26488e+07)
(1.18939e+08 611.971 -1029.51 1.15565e+08 3.81731e+06 1.26464e+07)
(1.18937e+08 -1009.31 -936.809 1.15558e+08 3.79445e+06 1.26469e+07)
(1.18938e+08 -681.653 -2077.36 1.15562e+08 3.7916e+06 1.26495e+07)
(1.18942e+08 -227.723 -6423.32 1.15569e+08 3.79671e+06 1.26528e+07)
(1.18949e+08 -644.173 -7425.16 1.15581e+08 3.79053e+06 1.26632e+07)
(1.18952e+08 1280.5 -2666.06 1.15586e+08 3.77275e+06 1.26685e+07)
(1.18931e+08 1195.83 -3248.65 1.15549e+08 3.79879e+06 1.26399e+07)
(1.18935e+08 463.625 -8793.77 1.1556e+08 3.79315e+06 1.26445e+07)
(1.18933e+08 1910.67 -15887.3 1.15557e+08 3.82216e+06 1.26389e+07)
(1.18936e+08 -904.251 -17000.3 1.15564e+08 3.82651e+06 1.26479e+07)
(1.1892e+08 -4772.16 -22002.8 1.1557e+08 3.79339e+06 1.26669e+07)
(1.18708e+08 -20757.2 -144162 1.1549e+08 3.78084e+06 1.26265e+07)
(1.16818e+08 -88169.4 -1.03985e+06 1.14634e+08 3.67055e+06 1.15235e+07)
(9.96609e+07 -160273 -4.92635e+06 1.06529e+08 3.17112e+06 2.05197e+06)
(5.55656e+07 -317004 -2.79846e+07 9.98485e+07 3.3059e+06 2.48477e+07)
(5.58853e+07 190866 2.82575e+07 1.01555e+08 2.07128e+06 2.54828e+07)
(1.00245e+08 105620 5.01572e+06 1.08338e+08 1.96856e+06 2.44449e+06)
(1.17621e+08 63004.4 1.07251e+06 1.16669e+08 2.29183e+06 1.20688e+07)
(1.19546e+08 15864.8 155007 1.17567e+08 2.38576e+06 1.31885e+07)
(1.19755e+08 2227.19 27913.2 1.17632e+08 2.40041e+06 1.32206e+07)
(1.19783e+08 478.914 13915.7 1.17642e+08 2.40097e+06 1.32185e+07)
(1.19782e+08 -659.711 11325.5 1.17636e+08 2.40324e+06 1.32123e+07)
(1.19788e+08 -646.182 9046.17 1.17649e+08 2.39688e+06 1.32197e+07)
(1.19788e+08 450.673 7000.02 1.17647e+08 2.39863e+06 1.32195e+07)
(1.19792e+08 -120.065 6055.89 1.17649e+08 2.40069e+06 1.32309e+07)
(1.19789e+08 -301.627 113.562 1.17648e+08 2.39895e+06 1.32218e+07)
(1.19797e+08 1219.49 2050.04 1.17662e+08 2.39989e+06 1.32312e+07)
(1.19788e+08 -2.38183 5749.81 1.17646e+08 2.42394e+06 1.32174e+07)
(1.1979e+08 -1763.82 1549.22 1.17649e+08 2.39857e+06 1.3223e+07)
(1.19788e+08 175.298 81.2863 1.17647e+08 2.39555e+06 1.32211e+07)
(1.19793e+08 628.438 -698.159 1.1765e+08 2.40013e+06 1.32306e+07)
(1.19789e+08 -621.935 -1212.79 1.17649e+08 2.39811e+06 1.32212e+07)
(1.1979e+08 -574.503 -5747.36 1.1765e+08 2.39595e+06 1.32224e+07)
(1.19807e+08 532.922 -2945.06 1.17674e+08 2.38132e+06 1.3252e+07)
(1.1979e+08 915.633 -4189.35 1.17651e+08 2.41815e+06 1.32215e+07)
(1.19798e+08 288.779 -5538.43 1.17668e+08 2.42016e+06 1.32289e+07)
(1.19787e+08 -372.014 -2750.68 1.17644e+08 2.40136e+06 1.32186e+07)
(1.19788e+08 313.597 -8863.6 1.17649e+08 2.3976e+06 1.32191e+07)
(1.19783e+08 1921.56 -11812.5 1.17639e+08 2.40248e+06 1.32148e+07)
(1.19779e+08 119.546 -13560.7 1.17635e+08 2.42776e+06 1.32131e+07)
(1.1976e+08 -4374.01 -30750.2 1.17643e+08 2.41994e+06 1.32254e+07)
(1.19557e+08 -16415.6 -155026 1.17584e+08 2.36693e+06 1.32078e+07)
(1.17623e+08 -62420.6 -1.06936e+06 1.1667e+08 2.29112e+06 1.20753e+07)
(1.00247e+08 -105148 -5.01666e+06 1.08339e+08 1.96711e+06 2.44913e+06)
(5.5885e+07 -191348 -2.82574e+07 1.01554e+08 2.07469e+06 2.54806e+07)
(5.60905e+07 111906 2.84193e+07 1.02624e+08 1.29907e+06 2.58752e+07)
(1.00618e+08 67199.1 5.07535e+06 1.09461e+08 1.22679e+06 2.70488e+06)
(1.1813e+08 43647.8 1.09661e+06 1.17956e+08 1.44125e+06 1.24194e+07)
(1.20077e+08 11360.3 160504 1.18884e+08 1.50753e+06 1.3551e+07)
(1.20297e+08 1681.52 29187 1.18955e+08 1.51866e+06 1.35942e+07)
(1.20322e+08 548.712 14067 1.18963e+08 1.51848e+06 1.35833e+07)
(1.20323e+08 -399.772 11017.6 1.18961e+08 1.52021e+06 1.35806e+07)
(1.20327e+08 -427.486 8749.89 1.18968e+08 1.51615e+06 1.35833e+07)
(1.20327e+08 135.487 6996.26 1.18967e+08 1.51714e+06 1.35834e+07)
(1.20331e+08 -105.034 5942.72 1.1897e+08 1.51944e+06 1.3594e+07)
(1.20328e+08 595.02 3495.79 1.18968e+08 1.51758e+06 1.35867e+07)
(1.20328e+08 756.224 2344.41 1.18968e+08 1.53943e+06 1.35841e+07)
(1.20325e+08 -647.877 2341.04 1.1896e+08 1.52215e+06 1.35829e+07)
(1.20329e+08 -1598.59 1074.01 1.18969e+08 1.51753e+06 1.3587e+07)
(1.20333e+08 19.3382 -44.127 1.18975e+08 1.49719e+06 1.35931e+07)
(1.20327e+08 932.405 -411.553 1.18966e+08 1.5186e+06 1.3584e+07)
(1.20328e+08 -461.283 -1316.65 1.18969e+08 1.51739e+06 1.35852e+07)
(1.20327e+08 625.041 -6042.43 1.18966e+08 1.51564e+06 1.35843e+07)
(1.20337e+08 6.91781 -2818.27 1.18985e+08 1.53934e+06 1.35942e+07)
(1.20331e+08 126.584 -472.245 1.18971e+08 1.49965e+06 1.35922e+07)
(1.20324e+08 688.942 -5154.01 1.18962e+08 1.54014e+06 1.35791e+07)
(1.20327e+08 -750.618 -6101.69 1.18965e+08 1.51892e+06 1.35849e+07)
(1.20327e+08 222.627 -8766.14 1.18968e+08 1.51697e+06 1.35834e+07)
(1.20324e+08 1113.97 -11254.8 1.18962e+08 1.52009e+06 1.35819e+07)
(1.20318e+08 -44.246 -13696.2 1.18953e+08 1.52343e+06 1.35805e+07)
(1.20294e+08 -2205.47 -32089.3 1.18954e+08 1.51864e+06 1.35876e+07)
(1.20085e+08 -11993.4 -160619 1.18895e+08 1.52781e+06 1.35625e+07)
(1.18132e+08 -44101.4 -1.09321e+06 1.17957e+08 1.43988e+06 1.24249e+07)
(1.00618e+08 -66529.1 -5.07615e+06 1.09462e+08 1.22544e+06 2.70698e+06)
(5.60907e+07 -112116 -2.84201e+07 1.02627e+08 1.30157e+06 2.58749e+07)
(5.62267e+07 64850.4 2.85135e+07 1.03306e+08 790420 2.61293e+07)
(1.00852e+08 42109.4 5.11246e+06 1.10153e+08 762928 2.87076e+06)
(1.1845e+08 29497.9 1.11346e+06 1.18762e+08 901864 1.26416e+07)
(1.20412e+08 7589.59 164405 1.19711e+08 948022 1.3782e+07)
(1.20636e+08 1182.26 29205.3 1.1979e+08 937090 1.38228e+07)
(1.20662e+08 899.554 14371.5 1.19794e+08 955494 1.38156e+07)
(1.20665e+08 -197.094 10811.9 1.19794e+08 956408 1.38142e+07)
(1.20666e+08 -269.872 8494.49 1.19798e+08 954308 1.38147e+07)
(1.20666e+08 51.5862 6777.62 1.19797e+08 955165 1.38144e+07)
(1.20666e+08 -125.979 5728.2 1.19797e+08 956367 1.38148e+07)
(1.20668e+08 174.432 3724.35 1.19798e+08 955063 1.38182e+07)
(1.20664e+08 507.362 2696.96 1.19788e+08 957507 1.3814e+07)
(1.20667e+08 -161.646 2307.34 1.19794e+08 958387 1.38184e+07)
(1.20669e+08 -684.948 -2844.76 1.19799e+08 955528 1.38189e+07)
(1.20677e+08 60.1412 -46.8935 1.19813e+08 953955 1.38284e+07)
(1.20668e+08 335.792 3303.12 1.19798e+08 956638 1.38169e+07)
(1.20668e+08 -751.741 -1441.18 1.19799e+08 955707 1.38176e+07)
(1.20672e+08 1043.41 -2600.26 1.19805e+08 936691 1.38231e+07)
(1.20666e+08 730.089 -6134.36 1.19796e+08 978339 1.38143e+07)
(1.20676e+08 -1075.45 -3713.54 1.19811e+08 955761 1.38288e+07)
(1.20668e+08 21.6099 -1513.47 1.19796e+08 941134 1.382e+07)
(1.20666e+08 35.5017 -6278.95 1.19795e+08 955449 1.38175e+07)
(1.20666e+08 231.513 -8657.31 1.19798e+08 955186 1.38153e+07)
(1.20665e+08 615.327 -10831.6 1.19795e+08 956610 1.38154e+07)
(1.20661e+08 -173.703 -13729.9 1.1979e+08 958598 1.38163e+07)
(1.20634e+08 -1633.01 -29574.6 1.19785e+08 955594 1.38212e+07)
(1.20414e+08 -8692.76 -165012 1.1971e+08 950409 1.37889e+07)
(1.18451e+08 -29775.4 -1.11354e+06 1.18759e+08 900250 1.2645e+07)
(1.00851e+08 -40802 -5.11333e+06 1.10153e+08 761960 2.87087e+06)
(5.62233e+07 -64572.4 -2.8515e+07 1.033e+08 811786 2.61211e+07)
(5.63141e+07 37261.1 2.85652e+07 1.03734e+08 498129 2.62874e+07)
(1.00997e+08 24971.6 5.13991e+06 1.10575e+08 468175 2.97375e+06)
(1.18648e+08 19322.4 1.12486e+06 1.1926e+08 556245 1.27798e+07)
(1.20621e+08 5635.65 163900 1.20226e+08 587507 1.39272e+07)
(1.20852e+08 753.798 29566.1 1.20315e+08 592120 1.3973e+07)
(1.20873e+08 239.102 17940.4 1.2031e+08 591729 1.39605e+07)
(1.20877e+08 -14.7828 10712.6 1.20312e+08 592541 1.39599e+07)
(1.20878e+08 -137.482 8341.18 1.20314e+08 591630 1.39596e+07)
(1.20878e+08 101.493 6768.84 1.20314e+08 592441 1.39594e+07)
(1.20878e+08 -184.715 5611.38 1.20314e+08 593563 1.39607e+07)
(1.20879e+08 -437.514 3809.08 1.20313e+08 591645 1.39627e+07)
(1.20882e+08 407.259 2935.71 1.20317e+08 576209 1.39684e+07)
(1.2088e+08 395.428 2216.54 1.20314e+08 593852 1.39647e+07)
(1.2088e+08 26.8834 334.069 1.20316e+08 592649 1.39639e+07)
(1.2088e+08 65.6517 78.975 1.20314e+08 610058 1.39632e+07)
(1.2088e+08 -154.611 110.508 1.20315e+08 593465 1.3964e+07)
(1.2088e+08 -81.7837 -5056.31 1.20316e+08 593095 1.39641e+07)
(1.20888e+08 586.647 -2399.86 1.2033e+08 592512 1.39729e+07)
(1.20877e+08 521.51 806.574 1.20308e+08 596808 1.396e+07)
(1.2088e+08 -264.905 -7183.3 1.20314e+08 611209 1.39638e+07)
(1.20887e+08 -693.844 -4916.62 1.20326e+08 595252 1.39733e+07)
(1.20877e+08 -334.974 -2974.63 1.2031e+08 591754 1.39617e+07)
(1.20878e+08 320.552 -8507.64 1.20315e+08 592616 1.39609e+07)
(1.20878e+08 304.351 -10625.6 1.20312e+08 592773 1.39612e+07)
(1.20874e+08 -334.172 -13839.3 1.2031e+08 593735 1.3963e+07)
(1.20844e+08 -1363.11 -33592.7 1.203e+08 591511 1.39662e+07)
(1.20631e+08 -6249.76 -168197 1.20239e+08 571370 1.39449e+07)
(1.18654e+08 -19351.7 -1.12167e+06 1.19267e+08 537363 1.27903e+07)
(1.00997e+08 -24028.6 -5.13564e+06 1.10576e+08 467915 2.9742e+06)
(5.63078e+07 -36664.4 -2.85695e+07 1.03718e+08 498031 2.6274e+07)
(5.63601e+07 20905.2 2.85999e+07 1.03971e+08 314648 2.63669e+07)
(1.01085e+08 13927.7 5.14786e+06 1.10829e+08 276012 3.03696e+06)
(1.18769e+08 12007.1 1.13229e+06 1.19561e+08 329711 1.28638e+07)
(1.20747e+08 4016.65 169502 1.20538e+08 349794 1.40158e+07)
(1.20976e+08 194.242 30226.7 1.20618e+08 369712 1.40612e+07)
(1.21001e+08 -161.397 14501 1.20622e+08 351416 1.40476e+07)
(1.21006e+08 226.78 10733.7 1.20626e+08 352296 1.40483e+07)
(1.21007e+08 -41.958 8278.19 1.20628e+08 352090 1.40476e+07)
(1.21007e+08 27.198 6857.62 1.20627e+08 352736 1.40478e+07)
(1.21011e+08 -346.068 5552.66 1.20631e+08 353426 1.40573e+07)
(1.21007e+08 115.196 325.131 1.20625e+08 351655 1.40496e+07)
(1.21017e+08 470.364 3148.03 1.20642e+08 353618 1.40628e+07)
(1.21009e+08 -96.8091 5607.85 1.20629e+08 353484 1.40527e+07)
(1.21009e+08 -577.791 232.399 1.20629e+08 352925 1.40519e+07)
(1.2101e+08 -76.2562 190.518 1.20628e+08 335327 1.40543e+07)
(1.21012e+08 489.913 253.17 1.20631e+08 352960 1.40606e+07)
(1.21013e+08 727.7 -1639.85 1.20633e+08 353373 1.40605e+07)
(1.2101e+08 401.152 -2189.95 1.20632e+08 371493 1.40525e+07)
(1.21007e+08 -833.999 -2586.78 1.20625e+08 355602 1.40516e+07)
(1.2101e+08 478.297 -3820.56 1.20629e+08 336281 1.40552e+07)
(1.2101e+08 -422.385 -5020.6 1.20631e+08 373039 1.40545e+07)
(1.21011e+08 -834.5 -6512.87 1.20632e+08 334373 1.40558e+07)
(1.21008e+08 600.114 -8428.68 1.20628e+08 353155 1.40501e+07)
(1.21006e+08 112.544 -10584.5 1.20626e+08 352314 1.40493e+07)
(1.21003e+08 -647.24 -13946.1 1.20626e+08 353042 1.40518e+07)
(1.20978e+08 15.4654 -33963.5 1.20623e+08 334045 1.40613e+07)
(1.20758e+08 -3043.56 -173999 1.20554e+08 368696 1.40313e+07)
(1.1878e+08 -12920.8 -1.1292e+06 1.19578e+08 329165 1.2879e+07)
(1.01086e+08 -14214.5 -5.14496e+06 1.10829e+08 275820 3.03879e+06)
(5.63594e+07 -20594.9 -2.85982e+07 1.03971e+08 295112 2.63644e+07)
(5.63896e+07 10787.2 2.86173e+07 1.04113e+08 135675 2.64196e+07)
(1.01134e+08 7950.93 5.15531e+06 1.10971e+08 144430 3.07063e+06)
(1.18836e+08 6463.77 1.13677e+06 1.19731e+08 173386 1.29112e+07)
(1.20823e+08 1381.99 171421 1.20718e+08 184270 1.40745e+07)
(1.21044e+08 -334.243 29628.6 1.2079e+08 167428 1.41021e+07)
(1.21079e+08 716.004 14719.9 1.20809e+08 167446 1.41034e+07)
(1.21079e+08 635.037 10835.4 1.20805e+08 185534 1.40985e+07)
(1.21079e+08 13.5347 8270.2 1.20805e+08 185672 1.40974e+07)
(1.2108e+08 -61.6211 6712.54 1.20805e+08 186119 1.4098e+07)
(1.2108e+08 -689.587 5251.73 1.20805e+08 185670 1.40985e+07)
(1.21084e+08 712.319 3980.1 1.20811e+08 167886 1.4105e+07)
(1.21084e+08 756.026 3366.42 1.20809e+08 204639 1.41053e+07)
(1.21081e+08 -610.343 2110.98 1.20806e+08 186876 1.41028e+07)
(1.21082e+08 -142.213 -3328.18 1.20807e+08 186341 1.41019e+07)
(1.21089e+08 -251.744 -40.8866 1.20818e+08 186023 1.41104e+07)
(1.21081e+08 38.8593 3719.79 1.20805e+08 184677 1.41006e+07)
(1.21081e+08 545.395 -1285.86 1.20806e+08 186142 1.41015e+07)
(1.21079e+08 236.783 -1847.68 1.20801e+08 187393 1.40987e+07)
(1.21085e+08 -82.0922 -5979.57 1.20808e+08 187130 1.41107e+07)
(1.21089e+08 223.839 -3758.14 1.20819e+08 187148 1.41119e+07)
(1.21084e+08 -312.307 -5282.73 1.20805e+08 187951 1.41097e+07)
(1.21088e+08 -410.948 -6651.36 1.20819e+08 185292 1.41105e+07)
(1.21084e+08 2.48813 -5245.47 1.2081e+08 186325 1.41084e+07)
(1.21078e+08 85.931 -10624.5 1.20803e+08 185029 1.40984e+07)
(1.21077e+08 1.36032 -17463.5 1.20805e+08 186155 1.41023e+07)
(1.21055e+08 498.091 -30701 1.20811e+08 185051 1.41171e+07)
(1.2082e+08 -1231.57 -168064 1.20713e+08 203487 1.40706e+07)
(1.18841e+08 -7681.99 -1.13732e+06 1.19737e+08 191530 1.29175e+07)
(1.01134e+08 -8013.89 -5.1554e+06 1.10969e+08 143384 3.07208e+06)
(5.63885e+07 -10539.3 -2.86175e+07 1.04113e+08 155805 2.64152e+07)
(5.64074e+07 3364.66 2.8622e+07 1.04191e+08 48810.3 2.6452e+07)
(1.01156e+08 2169.3 5.1638e+06 1.11034e+08 44749 3.08436e+06)
(1.18867e+08 1924.89 1.13869e+06 1.19807e+08 53940.8 1.29323e+07)
(1.20851e+08 106.125 167643 1.20794e+08 56606.5 1.40881e+07)
(1.21089e+08 247.75 26280.3 1.20893e+08 40353.8 1.41377e+07)
(1.21117e+08 494.897 18232.6 1.209e+08 57607.6 1.41321e+07)
(1.21112e+08 12.2073 14398 1.20886e+08 57425.7 1.41213e+07)
(1.21112e+08 30.9249 8292.58 1.20886e+08 57707 1.41199e+07)
(1.21113e+08 -21.4304 6626.15 1.20886e+08 57874.1 1.41207e+07)
(1.21113e+08 -45.7301 1683.88 1.20886e+08 57693.5 1.41206e+07)
(1.21122e+08 183.51 4122.71 1.20901e+08 57790.9 1.41335e+07)
(1.21112e+08 -30.1712 7001.9 1.20881e+08 58349.9 1.41232e+07)
(1.21118e+08 -139.065 2079.97 1.20889e+08 57866 1.41336e+07)
(1.21115e+08 439.965 -68.2409 1.20888e+08 58137.8 1.41243e+07)
(1.21115e+08 -367.729 -284.279 1.20886e+08 75442.9 1.41244e+07)
(1.21112e+08 -441.26 398.577 1.20883e+08 56470.4 1.41204e+07)
(1.21118e+08 435.385 -946.862 1.2089e+08 57948.1 1.41317e+07)
(1.21113e+08 142.72 -1929.86 1.20884e+08 58473.5 1.41228e+07)
(1.21114e+08 643.282 -2621.6 1.20886e+08 57648.3 1.41239e+07)
(1.21116e+08 81.9414 -3658.3 1.2089e+08 76511.1 1.41274e+07)
(1.21113e+08 -357.294 -5317.9 1.20885e+08 58568.5 1.41241e+07)
(1.21114e+08 -180.807 -6751.47 1.20886e+08 75112.6 1.41242e+07)
(1.21113e+08 -592.326 -8388.69 1.20887e+08 57587.9 1.41225e+07)
(1.2111e+08 76.0386 -10448.4 1.20882e+08 56614.2 1.41197e+07)
(1.2111e+08 653.678 -14029.7 1.20886e+08 57823.4 1.41259e+07)
(1.21081e+08 106.534 -30713.2 1.20877e+08 75075.8 1.4131e+07)
(1.20849e+08 -719.903 -171960 1.20786e+08 58089.8 1.40888e+07)
(1.18867e+08 -3057.37 -1.13989e+06 1.19805e+08 55107.3 1.29342e+07)