/*--------------------------------*- C++ -*----------------------------------*\
| =========                 |                                                 |
| \\      /  F ield         | OpenFOAM: The Open Source CFD Toolbox           |
|  \\    /   O peration     | Version:  2106                                  |
|   \\  /    A nd           | Website:  www.openfoam.com                      |
|    \\/     M anipulation  |                                                 |
\*---------------------------------------------------------------------------*/
FoamFile
{
    version     2.0;
    format      ascii;
    arch        "LSB;label=32;scalar=64";
    class       volTensorField;
    location    "765";
    object      testEpsilon;
}
// * * * * * * * * * * * * * * * * * * * * * * * * * * * * * * * * * * * * * //

dimensions      [0 0 0 0 0 0 0];

internalField   nonuniform List<tensor> 
9000
(
(-0.0855807 0.00384523 -0.105452 -0.00437223 -0.147116 -0.257496 0.201776 0.38031 -0.0253733)
(-0.0167732 0.00368748 -0.00285521 -0.00261184 -0.156475 -0.270369 0.0216228 0.400625 -0.0697522)
(-0.00192931 0.00248199 0.00204125 -0.00181049 -0.166385 -0.287059 0.00309017 0.425371 -0.0595171)
(-0.000321077 0.000467139 0.000324694 -0.000365875 -0.167997 -0.29083 0.000578579 0.43092 -0.0573954)
(-5.53373e-05 -3.88254e-05 -2.84101e-05 2.29285e-05 -0.168079 -0.290941 0.000107966 0.431084 -0.0574078)
(-3.88187e-06 -2.32419e-05 -1.5152e-05 1.91273e-05 -0.167896 -0.290163 5.05024e-05 0.429883 -0.0576821)
(-1.31066e-06 -1.30208e-06 -2.98075e-07 1.23069e-06 -0.168021 -0.290719 5.13635e-05 0.430766 -0.0575675)
(5.30926e-08 -3.1056e-05 -1.88253e-05 1.9223e-05 -0.167889 -0.29015 3.43586e-05 0.429872 -0.0576824)
(-9.20611e-07 3.9876e-05 2.54243e-05 -2.6974e-05 -0.167887 -0.290141 3.71844e-05 0.429856 -0.0576898)
(-6.55394e-06 1.73982e-05 8.76472e-06 -4.13803e-06 -0.168061 -0.290828 -2.36147e-05 0.430918 -0.0574715)
(2.42137e-06 -6.45469e-05 -4.46244e-05 5.20182e-05 -0.167942 -0.290388 -5.34034e-05 0.430244 -0.0575984)
(7.85355e-06 1.75646e-05 1.37714e-05 -1.86424e-05 -0.167761 -0.289678 6.572e-05 0.429153 -0.0578379)
(-4.59408e-06 6.00739e-05 4.13535e-05 -4.91704e-05 -0.16805 -0.290775 7.64955e-05 0.430841 -0.0574995)
(-4.35717e-06 -1.20353e-05 -1.08408e-05 1.36924e-05 -0.168067 -0.290781 -4.95366e-05 0.430865 -0.0574881)
(3.42442e-06 6.12411e-06 3.96379e-06 -4.39887e-06 -0.167955 -0.290435 -2.51079e-07 0.430308 -0.0575823)
(-2.6332e-06 1.29518e-05 1.08271e-05 -1.53258e-05 -0.168063 -0.290838 5.01176e-05 0.430932 -0.0574732)
(-2.1695e-06 -1.85153e-05 -1.44526e-05 1.91926e-05 -0.168065 -0.290777 -5.81902e-05 0.430859 -0.057493)
(3.88842e-09 1.45309e-06 1.53484e-06 5.99081e-08 -0.167958 -0.290445 -7.77821e-06 0.430323 -0.0575736)
(-2.16929e-06 -4.47245e-05 -2.82016e-05 3.13954e-05 -0.168052 -0.290796 -2.14005e-05 0.430873 -0.0574877)
(4.64965e-06 -4.1115e-05 -2.65705e-05 2.83658e-05 -0.167773 -0.289723 -2.67576e-05 0.429217 -0.0578021)
(2.76029e-06 5.96273e-05 4.05378e-05 -4.79888e-05 -0.167874 -0.290094 3.88327e-05 0.429796 -0.0577151)
(-5.68672e-06 4.60556e-05 2.95474e-05 -3.29808e-05 -0.16806 -0.290812 -1.60376e-05 0.43089 -0.0574859)
(-3.481e-06 -3.46329e-05 -2.19866e-05 2.28736e-05 -0.168065 -0.290842 -4.21365e-05 0.430938 -0.0574681)
(1.07518e-07 -7.12744e-06 -4.13909e-06 5.50671e-06 -0.167901 -0.29018 -4.89919e-05 0.429911 -0.0576687)
(-7.75423e-06 1.21141e-05 6.88449e-06 -8.79633e-06 -0.168052 -0.290784 -5.53497e-05 0.430851 -0.0574949)
(-5.38749e-05 -2.2083e-05 -1.34138e-05 2.59646e-05 -0.167912 -0.290278 -0.000173022 0.43006 -0.0576047)
(-0.000314516 -0.000438636 -0.000306265 0.000347265 -0.167867 -0.290349 -0.000573707 0.43019 -0.0575381)
(-0.00192991 -0.00245477 -0.00202175 0.00178371 -0.166381 -0.286976 -0.00303426 0.425266 -0.0595436)
(-0.016776 -0.0036796 0.00286037 0.00260584 -0.156473 -0.270362 -0.0216247 0.400617 -0.0697536)
(-0.08558 -0.00384719 0.105453 0.00437405 -0.147115 -0.257483 -0.201779 0.380288 -0.0253789)
(-0.0724034 0.00189534 -0.103171 -0.00191787 -0.0980716 -0.0790747 0.196128 0.21544 -0.128991)
(-0.0163973 0.00216329 -0.00426109 -0.000798222 -0.103197 -0.0826093 0.0203106 0.226105 -0.175005)
(-0.00180221 0.00153321 0.000977704 -0.000667855 -0.109234 -0.0876369 0.00210711 0.240105 -0.17132)
(-0.000206426 0.000315938 0.000119152 -0.000174009 -0.1104 -0.0888299 0.000339806 0.243614 -0.170637)
(-2.73492e-05 -1.72331e-05 1.2029e-06 4.58926e-06 -0.110422 -0.0888675 6.34709e-05 0.243717 -0.170684)
(-4.46565e-06 -1.66001e-05 -2.58846e-06 1.00681e-05 -0.110202 -0.0886815 6.52359e-05 0.243398 -0.170699)
(-2.07445e-06 3.33977e-07 1.22683e-06 6.79842e-07 -0.110369 -0.0887944 5.04528e-05 0.243533 -0.17071)
(-1.47054e-06 -1.00448e-05 5.91847e-06 6.61629e-06 -0.110178 -0.0886801 -1.12178e-05 0.243405 -0.170696)
(-7.47341e-07 1.50849e-05 -5.58051e-06 -1.09585e-05 -0.11018 -0.0886787 7.40545e-05 0.24339 -0.170703)
(-1.19814e-06 1.07171e-05 -1.97277e-06 3.73015e-06 -0.110394 -0.0888299 6.97122e-05 0.243594 -0.170707)
(-4.62731e-07 -2.10883e-05 8.83094e-06 2.77365e-05 -0.110296 -0.0887372 -3.1686e-05 0.243851 -0.170677)
(7.84862e-08 3.89729e-07 -3.77774e-06 -1.21596e-05 -0.110076 -0.0885738 1.2486e-05 0.243617 -0.170667)
(-1.08725e-06 1.47385e-05 -7.98374e-06 -2.87129e-05 -0.110393 -0.0888017 5.55205e-05 0.243531 -0.17071)
(-7.98174e-07 3.52896e-06 3.85857e-06 9.08811e-06 -0.11037 -0.0888005 -2.63442e-07 0.243259 -0.170691)
(1.19583e-07 7.62273e-06 -7.73306e-07 -1.1838e-07 -0.110309 -0.0887534 -2.15327e-06 0.243894 -0.17068)
(-3.78898e-07 -5.2756e-06 -2.4847e-06 -1.27547e-05 -0.110397 -0.0888342 -1.65266e-06 0.243607 -0.170711)
(-2.42402e-07 -2.09571e-06 3.29301e-06 1.24264e-05 -0.110368 -0.0887998 -4.95092e-06 0.243256 -0.170694)
(-1.76664e-07 4.30929e-06 -9.07523e-07 3.30216e-06 -0.110313 -0.0887565 -6.05301e-06 0.2439 -0.170676)
(-7.64948e-07 -1.81958e-05 5.52325e-06 1.38974e-05 -0.110384 -0.0888174 -5.48083e-05 0.243562 -0.170711)
(-7.91402e-07 -1.59006e-05 6.05219e-06 1.2057e-05 -0.110083 -0.0885904 -6.19316e-05 0.243675 -0.170666)
(-7.91556e-07 1.66247e-05 -9.9579e-06 -2.49359e-05 -0.110164 -0.0886582 1.93368e-05 0.243345 -0.170691)
(-9.4077e-07 1.92498e-05 -5.8617e-06 -1.54047e-05 -0.110405 -0.0888196 1.5734e-05 0.243564 -0.170713)
(-1.10282e-06 -1.10814e-05 6.485e-06 8.90993e-06 -0.110397 -0.0888353 -8.17677e-05 0.24361 -0.170708)
(-1.55317e-06 -6.13138e-06 -1.21205e-06 2.65283e-06 -0.110196 -0.0886947 -4.46751e-05 0.243426 -0.170693)
(-5.15481e-06 1.02613e-05 2.10337e-06 -3.41862e-06 -0.110398 -0.0888114 -6.02117e-05 0.243536 -0.170711)
(-2.77118e-05 -1.53284e-06 7.44323e-06 2.13937e-05 -0.110214 -0.0887214 -0.00010914 0.243537 -0.170668)
(-0.000206187 -0.000311822 -0.000124861 0.000164901 -0.110289 -0.0887212 -0.000293374 0.243831 -0.170606)
(-0.00180235 -0.00152542 -0.000980837 0.000650114 -0.109198 -0.0875936 -0.00210792 0.239741 -0.171319)
(-0.0163973 -0.0021552 0.00426073 0.000796806 -0.103195 -0.0826062 -0.0203154 0.226098 -0.175003)
(-0.0724023 -0.00189788 0.103171 0.00192035 -0.0980752 -0.0790741 -0.19613 0.215419 -0.128992)
(-0.0763047 -0.00107804 -0.104036 0.0034235 -0.0575537 -0.00938264 0.197527 0.125712 -0.153406)
(-0.0165232 0.00145503 -0.00456764 0.000287868 -0.0602169 -0.0111291 0.0202967 0.132422 -0.201966)
(-0.00180447 0.00104127 0.000797134 -2.21531e-06 -0.063366 -0.0116301 0.00193841 0.141065 -0.199928)
(-0.000186588 0.000229406 7.85685e-05 -3.29531e-05 -0.0641021 -0.011795 0.000259869 0.143583 -0.199627)
(-1.85218e-05 7.45497e-07 1.26828e-06 -2.5106e-06 -0.0641041 -0.0118059 0.000110837 0.143681 -0.199687)
(-4.66375e-06 -1.26294e-05 -5.36488e-07 2.31347e-06 -0.0639983 -0.0118166 7.0027e-05 0.143911 -0.199648)
(-2.00103e-06 3.47516e-06 -1.13316e-08 8.86514e-07 -0.0640743 -0.0117936 4.99351e-05 0.143546 -0.199696)
(-2.27458e-06 6.92481e-06 4.31534e-06 2.03751e-06 -0.0639919 -0.0118335 3.97932e-05 0.144122 -0.199667)
(-1.49784e-06 -3.28205e-06 -4.53884e-06 -2.43822e-06 -0.0640003 -0.0118255 2.04404e-05 0.1441 -0.199671)
(1.18507e-06 -5.94872e-06 -2.94341e-06 3.9057e-07 -0.0640766 -0.0117964 2.16239e-05 0.143591 -0.199701)
(-7.56579e-07 -8.30345e-07 6.60245e-06 7.27279e-06 -0.064065 -0.011813 3.04721e-05 0.143557 -0.199688)
(-3.43633e-06 -1.72819e-06 8.86819e-07 -3.66935e-06 -0.063977 -0.0118413 8.64351e-06 0.144078 -0.199649)
(-3.44537e-07 1.242e-06 -4.00307e-06 -8.12646e-06 -0.0640561 -0.0117851 -3.58726e-05 0.143359 -0.199657)
(1.36173e-06 4.7974e-06 -1.18933e-06 2.89412e-06 -0.0640079 -0.0117994 2.36709e-06 0.1436 -0.199683)
(-9.44144e-07 6.35883e-07 -2.75884e-06 4.07677e-07 -0.06407 -0.0118126 2.69052e-05 0.143589 -0.199691)
(-1.24257e-07 1.02258e-06 1.55141e-06 -3.15597e-06 -0.0640783 -0.0117988 -3.5601e-05 0.143605 -0.199703)
(1.04187e-06 -1.63571e-06 1.07467e-06 2.56086e-06 -0.0640076 -0.0118003 -7.26266e-07 0.143598 -0.199686)
(2.98099e-07 -1.70591e-06 -1.99525e-06 2.27616e-06 -0.0640721 -0.0118128 2.50685e-05 0.143588 -0.199691)
(-4.1832e-07 1.17991e-06 5.02186e-06 3.48984e-06 -0.0640704 -0.0117906 5.86439e-07 0.143566 -0.1997)
(-3.11702e-06 2.949e-06 5.26904e-06 2.65911e-06 -0.063981 -0.011847 -7.10814e-06 0.144094 -0.199653)
(-2.73205e-06 -4.6616e-06 -5.30093e-06 -6.37724e-06 -0.0639824 -0.0118285 -3.7602e-05 0.144105 -0.199657)
(1.08245e-06 -5.66245e-07 -5.85675e-06 -4.5238e-06 -0.0640674 -0.0117854 -4.09025e-05 0.143378 -0.199683)
(1.30494e-07 7.15523e-06 2.98267e-06 3.04234e-06 -0.0640768 -0.0117985 -2.89714e-05 0.143607 -0.199703)
(-2.35819e-06 -7.33227e-06 6.40696e-07 -6.09797e-07 -0.064011 -0.0118322 -4.27027e-05 0.14412 -0.199667)
(-4.00606e-06 8.47137e-06 1.54596e-06 -3.831e-07 -0.0640716 -0.0117827 -6.12163e-05 0.143355 -0.199676)
(-2.0211e-05 -2.60902e-07 4.62786e-06 9.52955e-06 -0.0640239 -0.0118382 -9.66706e-05 0.144209 -0.19965)
(-0.000188772 -0.000235336 -8.06963e-05 3.06119e-05 -0.0640792 -0.0118067 -0.000296669 0.143521 -0.199609)
(-0.00180353 -0.00103599 -0.000798751 -2.52452e-06 -0.0632929 -0.0116222 -0.00195049 0.141018 -0.199916)
(-0.016522 -0.00145512 0.00456426 -0.000288848 -0.0602148 -0.0111279 -0.0202723 0.132418 -0.201963)
(-0.0763019 0.00107334 0.104034 -0.00341838 -0.0575629 -0.00937921 -0.197524 0.125683 -0.153407)
(-0.0818778 -0.00282243 -0.107652 0.00645333 -0.0351663 0.00543967 0.204388 0.0763775 -0.154295)
(-0.0170824 0.00100082 -0.00471058 0.0007597 -0.0372327 0.00345647 0.020985 0.0810764 -0.205378)
(-0.00186638 0.000756155 0.000844532 0.000233766 -0.0391077 0.00393204 0.0021304 0.0872843 -0.203493)
(-0.000206485 0.000168315 8.39871e-05 3.25996e-05 -0.0396307 0.00401792 0.000295634 0.0889554 -0.203202)
(-2.02958e-05 3.53154e-06 -3.13211e-06 -5.06115e-06 -0.03964 0.00401801 8.55841e-05 0.0890482 -0.203268)
(-3.78623e-06 -1.06367e-05 -1.22525e-07 -2.87887e-06 -0.0395808 0.00398836 7.07068e-05 0.0888711 -0.203236)
(-2.12964e-06 1.62277e-06 -2.14053e-06 9.08202e-07 -0.039605 0.00401561 6.89975e-05 0.088819 -0.203264)
(-2.13548e-06 4.75565e-06 -4.61699e-07 -1.67846e-06 -0.0396222 0.00398592 3.85081e-05 0.0890173 -0.203286)
(-1.07673e-06 -1.85363e-06 1.82612e-06 2.84694e-06 -0.0396165 0.00399153 2.31971e-05 0.0888646 -0.203249)
(7.44056e-07 -2.22333e-06 5.29198e-07 2.89055e-06 -0.0396145 0.00401641 2.29338e-05 0.088986 -0.20328)
(-1.27472e-06 -1.18415e-06 -1.38802e-07 -2.79228e-06 -0.0396095 0.00401101 2.96748e-05 0.0889646 -0.203277)
(-3.00136e-06 2.17461e-06 1.79791e-06 -6.67619e-07 -0.039614 0.00398056 -1.0826e-05 0.0889774 -0.203254)
(2.25445e-07 8.56337e-06 3.88967e-07 3.32847e-06 -0.0395688 0.00400159 -7.50766e-06 0.0890024 -0.20326)
(9.08654e-07 7.45658e-07 -1.64479e-06 1.32371e-06 -0.0395899 0.00399304 2.25461e-05 0.0893405 -0.203286)
(-1.09043e-06 -6.45431e-06 -6.55962e-07 -5.00134e-07 -0.0396073 0.00401097 -8.30172e-07 0.088993 -0.203279)
(5.17389e-08 7.20753e-06 -2.81728e-08 9.92809e-07 -0.0396158 0.00401347 -7.61822e-06 0.0890017 -0.203284)
(8.44023e-07 -8.58256e-07 4.9588e-07 -3.55945e-07 -0.0395906 0.00399298 -9.84743e-07 0.0893379 -0.203289)
(9.1333e-09 -8.24482e-06 1.02813e-06 -2.18827e-07 -0.0396076 0.0040108 -1.61391e-06 0.0889925 -0.20328)
(-6.88358e-07 1.99001e-08 -1.31749e-06 -3.15098e-06 -0.0396114 0.00401893 -1.58868e-06 0.0889653 -0.203258)
(-2.76482e-06 1.6993e-06 -1.53038e-06 -3.19776e-06 -0.0396158 0.00398029 -9.94695e-06 0.0889995 -0.20328)
(-2.22814e-06 -6.38781e-07 2.36943e-06 2.87824e-06 -0.0396176 0.00398458 -5.50175e-05 0.0889983 -0.203261)
(9.43145e-07 3.59222e-07 1.49427e-07 2.79758e-06 -0.0395797 0.00401272 -3.98052e-05 0.0889795 -0.203252)
(-3.20025e-07 1.88328e-07 -2.8711e-06 -2.704e-06 -0.0396121 0.00401452 -1.08673e-05 0.0890057 -0.203284)
(-2.23825e-06 -5.09552e-06 1.93723e-06 -2.58213e-06 -0.0396214 0.0039913 -6.27688e-05 0.0888732 -0.20327)
(-3.12694e-06 7.6861e-06 9.06408e-07 2.0347e-06 -0.0395742 0.00401281 -6.15054e-05 0.0888271 -0.203228)
(-2.15128e-05 -3.04719e-06 2.64413e-06 3.43366e-06 -0.0396475 0.00398905 -7.2332e-05 0.0890745 -0.203264)
(-0.000208598 -0.00016563 -8.1667e-05 -2.97647e-05 -0.039617 0.00401104 -0.000301219 0.0889112 -0.203192)
(-0.00186624 -0.000752533 -0.000845069 -0.000232503 -0.0390838 0.00391273 -0.00214501 0.0875884 -0.203466)
(-0.0170805 -0.0010092 0.00470933 -0.000762027 -0.0372312 0.00345676 -0.0209911 0.0810732 -0.205375)
(-0.081882 0.0028139 0.107648 -0.0064434 -0.0351569 0.00544513 -0.204381 0.0762184 -0.154281)
(-0.0860583 -0.00311441 -0.112077 0.00667132 -0.0220579 0.00482869 0.212814 0.0479388 -0.152288)
(-0.0177671 0.000666754 -0.00486917 0.000874757 -0.023578 0.00285458 0.0219713 0.0506924 -0.205729)
(-0.00194989 0.000561666 0.000909424 0.000263326 -0.0249318 0.00331625 0.00240801 0.0554668 -0.203766)
(-0.000234354 0.000122953 9.57631e-05 4.96799e-05 -0.0252869 0.0034042 0.000324682 0.0565169 -0.203435)
(-2.56175e-05 1.07252e-05 -4.64417e-06 6.07821e-08 -0.025288 0.0034069 8.52264e-05 0.0564944 -0.203495)
(-3.46988e-06 -5.64624e-06 -1.01624e-06 -3.81665e-06 -0.0252438 0.00338911 4.87507e-05 0.0568008 -0.203526)
(-1.76094e-06 -4.79683e-06 -4.97872e-07 -8.8103e-07 -0.0252444 0.0033996 6.50926e-05 0.0564363 -0.203504)
(-1.88683e-06 4.64282e-06 -4.99774e-07 -1.79702e-07 -0.0252819 0.00340777 3.62572e-05 0.0565777 -0.203529)
(-5.84038e-07 -1.74714e-06 1.55857e-06 1.42713e-06 -0.0252557 0.00339975 2.59385e-05 0.0565882 -0.203517)
(5.72246e-08 -4.55446e-06 9.51193e-07 1.41023e-07 -0.0252848 0.00340233 4.14247e-05 0.0565623 -0.203503)
(-1.46821e-06 -7.30881e-07 -5.68079e-07 -3.40952e-06 -0.0252666 0.00340187 2.52636e-05 0.0564412 -0.203507)
(-2.21218e-06 6.39933e-06 -9.95783e-07 1.53888e-06 -0.0252823 0.00340502 8.35179e-06 0.0565601 -0.203512)
(5.37281e-08 6.06435e-06 -1.50707e-06 3.77696e-06 -0.0252721 0.00338471 -3.67285e-06 0.0567755 -0.203531)
(5.96008e-07 -2.90234e-06 6.84838e-07 4.71542e-07 -0.0252993 0.00339565 3.88498e-06 0.0566205 -0.203527)
(-1.01032e-06 -4.55041e-06 1.32727e-06 2.66292e-07 -0.0252769 0.00340166 2.51613e-07 0.0565701 -0.203521)
(-9.54188e-08 4.36165e-06 -2.04596e-06 7.22067e-07 -0.0252873 0.00340355 -7.02324e-06 0.0565711 -0.203522)
(7.99546e-07 5.66544e-09 5.42019e-07 -6.68226e-07 -0.0252999 0.00339648 -2.31467e-06 0.0566171 -0.203529)
(-2.60907e-07 -5.84708e-06 3.19491e-06 -1.04881e-06 -0.0252765 0.00340112 -1.16921e-06 0.0565702 -0.203522)
(-1.01411e-06 -4.61245e-07 -1.08146e-06 -2.97483e-06 -0.0252843 0.00340111 -5.73091e-06 0.0565603 -0.203493)
(-1.91117e-06 1.69142e-06 -1.60138e-06 -1.89959e-06 -0.0252812 0.00340469 -1.37312e-05 0.0565655 -0.203524)
(-1.53298e-06 2.55864e-06 1.18484e-06 2.93524e-06 -0.0252817 0.00340452 -3.04855e-05 0.056577 -0.203519)
(-3.39998e-08 5.38428e-07 1.32114e-07 3.22335e-06 -0.0252599 0.00338797 -3.50788e-05 0.0566741 -0.203519)
(-9.45447e-07 -1.18988e-06 -1.30066e-06 -1.10658e-06 -0.0252785 0.0034015 -4.93095e-05 0.0565799 -0.203525)
(-1.41045e-06 2.47057e-07 2.98956e-07 -2.23948e-06 -0.0252632 0.00340892 -6.10371e-05 0.0565708 -0.203518)
(-2.8029e-06 3.25195e-06 1.0965e-06 1.73635e-06 -0.0252398 0.00338231 -4.15206e-05 0.0566629 -0.203506)
(-2.65709e-05 -8.82612e-06 4.27249e-06 -7.7374e-07 -0.0253027 0.00340869 -7.51341e-05 0.0566112 -0.203504)
(-0.00023596 -0.000122582 -9.59611e-05 -5.0283e-05 -0.0252853 0.00340698 -0.000328423 0.0564784 -0.203423)
(-0.00194998 -0.000558823 -0.000909607 -0.000260419 -0.0249488 0.00330313 -0.00241698 0.0555075 -0.203761)
(-0.0177642 -0.000669746 0.00487075 -0.000874005 -0.0235773 0.00285509 -0.021998 0.0506887 -0.205727)
(-0.0860652 0.00310937 0.112052 -0.00666234 -0.0220259 0.00482596 -0.212765 0.0479219 -0.152279)
(-0.0887428 -0.00259485 -0.115937 0.00539149 -0.0139502 0.00256124 0.220172 0.0303722 -0.151262)
(-0.018364 0.00042604 -0.00501306 0.000792337 -0.0148824 0.000987813 0.0229176 0.031768 -0.206543)
(-0.00203139 0.000414368 0.000954456 0.000225439 -0.0159393 0.00130452 0.00266814 0.0350666 -0.20448)
(-0.000259138 9.70733e-05 0.000102116 5.03869e-05 -0.0161925 0.00135439 0.000364033 0.0360742 -0.204176)
(-3.09952e-05 1.21523e-05 -6.15158e-06 3.6037e-06 -0.0161812 0.00135535 0.000102385 0.0361548 -0.204246)
(-3.97459e-06 -1.91312e-06 -1.58263e-06 -3.09617e-06 -0.0161987 0.00134837 6.14749e-05 0.0363205 -0.204286)
(-1.40225e-06 -6.00265e-06 1.59138e-06 -1.72187e-06 -0.0161535 0.00134639 4.7928e-05 0.0361744 -0.204265)
(-1.67385e-06 2.48807e-06 -4.3045e-07 5.70322e-07 -0.0161935 0.00135804 5.00367e-05 0.0361383 -0.204273)
(-1.01258e-06 -2.42237e-06 7.39108e-07 -9.25466e-07 -0.016186 0.00134963 2.66179e-05 0.0362886 -0.204284)
(-2.23273e-07 -4.39795e-06 9.53487e-07 -1.34565e-06 -0.016186 0.00134889 1.00147e-05 0.0360441 -0.204259)
(-9.95144e-07 -6.83718e-07 3.99051e-07 -2.59968e-06 -0.0161652 0.00134897 2.18014e-05 0.0361245 -0.204263)
(-1.56407e-06 1.06184e-06 -1.63485e-06 -7.93606e-07 -0.0161878 0.00135248 2.36137e-05 0.036036 -0.204236)
(1.19772e-08 5.15346e-06 -1.48523e-06 4.52499e-06 -0.0162055 0.00135134 2.73079e-07 0.0360596 -0.204261)
(2.0652e-07 -2.14355e-07 1.74488e-06 1.92857e-06 -0.0162058 0.00136082 5.2191e-06 0.0361609 -0.204271)
(-1.04033e-06 -4.04043e-06 9.24533e-07 -1.04914e-06 -0.0161923 0.00135306 9.65489e-07 0.0361327 -0.204267)
(-1.35165e-07 2.61318e-06 -1.06283e-06 1.10166e-06 -0.0161898 0.0013539 -6.42466e-06 0.036039 -0.204257)
(4.89847e-07 1.2859e-06 9.39856e-09 3.39697e-07 -0.0162058 0.00136156 -3.11983e-06 0.0361569 -0.204273)
(-4.52187e-07 -5.12915e-06 1.9535e-06 -3.38187e-06 -0.0161917 0.00135283 -2.83887e-06 0.0361345 -0.204269)
(-8.58514e-07 -9.10838e-07 -6.04137e-07 -2.06491e-06 -0.0161893 0.00134375 -8.47404e-06 0.0360448 -0.204237)
(-1.58281e-06 2.23237e-06 -8.49249e-07 4.5214e-07 -0.0161983 0.00135825 -1.45544e-05 0.0361259 -0.204268)
(-1.20355e-06 3.62386e-06 -9.74556e-07 2.30045e-06 -0.0162013 0.00135644 -4.27956e-05 0.0361337 -0.204248)
(1.34781e-07 9.87744e-07 -4.53836e-07 2.78613e-06 -0.0161824 0.0013461 -3.20668e-05 0.0361637 -0.204271)
(-1.41259e-06 -4.79464e-07 1.31915e-06 -3.39907e-07 -0.0161923 0.00135264 -1.79901e-05 0.036141 -0.204273)
(-1.66967e-06 2.64334e-06 -1.90041e-06 -1.29643e-06 -0.0161834 0.00135228 -6.12517e-05 0.0361923 -0.204252)
(-2.83379e-06 -2.05841e-07 8.60273e-07 1.06138e-06 -0.0161746 0.00134036 -5.65124e-05 0.0362084 -0.204266)
(-3.19166e-05 -1.21313e-05 7.57859e-06 -4.40519e-06 -0.0162119 0.00135989 -7.91519e-05 0.0361534 -0.204246)
(-0.000260527 -9.48528e-05 -0.000102779 -4.99002e-05 -0.0161881 0.00135453 -0.000385814 0.0359563 -0.204135)
(-0.00203099 -0.000410944 -0.000955448 -0.000222296 -0.0159478 0.00130987 -0.00267165 0.0350791 -0.204496)
(-0.0183608 -0.000424624 0.0050139 -0.000790851 -0.0148822 0.000989359 -0.0229235 0.0317637 -0.20654)
(-0.0887419 0.00259834 0.115909 -0.00539309 -0.0139377 0.00255404 -0.220117 0.0305103 -0.151265)
(-0.0904001 -0.00185958 -0.118768 0.00378946 -0.00882057 0.00124345 0.225571 0.019234 -0.150982)
(-0.0188003 0.000268934 -0.00512051 0.000627582 -0.00929855 0.000148327 0.0236866 0.0198346 -0.207535)
(-0.00209828 0.000299646 0.000982738 0.000176093 -0.0101 0.000350354 0.00286961 0.0222767 -0.20547)
(-0.000278721 7.45876e-05 0.000105929 4.2014e-05 -0.0103125 0.000378356 0.000442063 0.0229576 -0.205148)
(-3.63141e-05 9.48302e-06 -5.84727e-06 4.10538e-06 -0.01032 0.000378046 0.000107835 0.0231455 -0.205217)
(-4.535e-06 -1.15919e-07 -2.8066e-06 -1.88451e-06 -0.0103372 0.000384914 4.45493e-05 0.0230535 -0.205249)
(-1.02765e-06 -3.76864e-06 1.43603e-06 -1.62437e-06 -0.0103011 0.000372204 4.7658e-05 0.0231446 -0.205235)
(-1.72755e-06 -1.8589e-06 1.47379e-07 -9.13883e-07 -0.0103185 0.000379033 4.85963e-05 0.0230179 -0.205248)
(-9.67232e-07 -2.37009e-07 -2.70773e-07 -2.76264e-07 -0.0103281 0.000379418 1.20394e-05 0.0230342 -0.20525)
(-2.77618e-07 -3.96147e-07 8.19129e-07 -6.70064e-09 -0.0102966 0.00037419 2.42568e-05 0.0230184 -0.205245)
(-1.3578e-06 -1.08388e-06 1.4939e-07 -2.45921e-06 -0.0103066 0.00037358 1.91697e-05 0.0231268 -0.205253)
(-7.87246e-07 -1.64671e-06 -5.22251e-07 -1.86375e-06 -0.0103019 0.000371768 -5.89533e-06 0.0230163 -0.205236)
(5.98164e-07 2.45901e-06 1.60877e-07 3.30929e-06 -0.0103027 0.000380284 1.80107e-05 0.022944 -0.205231)
(-5.18818e-07 -2.67349e-07 1.02871e-06 1.3162e-06 -0.0103253 0.000381774 2.04533e-05 0.0230314 -0.205244)
(-1.17571e-06 -1.3643e-06 -5.68873e-08 -4.41791e-07 -0.0103181 0.000376504 -1.33633e-05 0.0230133 -0.205243)
(1.82348e-07 1.6572e-06 -3.44599e-07 1.22614e-06 -0.0102997 0.000375959 -5.23589e-06 0.0230151 -0.205239)
(-9.71608e-08 -3.6687e-07 3.27399e-07 -4.09188e-07 -0.0103252 0.00038185 1.06765e-05 0.0230284 -0.205245)
(-7.41827e-07 -2.54411e-06 -3.68549e-07 -2.86677e-06 -0.0103175 0.000377167 -1.96412e-05 0.0230142 -0.205244)
(-2.47305e-07 -1.78181e-06 3.48885e-09 -2.08736e-06 -0.0103035 0.000368073 -1.00675e-05 0.0230187 -0.205241)
(-1.0381e-06 -7.15905e-07 9.37689e-07 -1.02269e-06 -0.010314 0.000377649 -3.93171e-07 0.0229264 -0.205233)
(-1.06618e-06 5.748e-06 -1.24541e-06 3.87788e-06 -0.0103209 0.000373761 -2.59305e-05 0.0229415 -0.205217)
(-5.6207e-07 2.33668e-06 -6.27854e-07 3.65405e-06 -0.0103185 0.000379726 -2.92867e-05 0.0231485 -0.205258)
(-1.76196e-06 -1.38832e-06 -6.52672e-08 -1.25387e-06 -0.0103177 0.000377373 -4.74937e-05 0.0230202 -0.205249)
(-1.13019e-06 3.79236e-06 -2.15785e-06 2.55454e-07 -0.0103102 0.000373235 -6.08056e-05 0.0230426 -0.205242)
(-3.42465e-06 -2.45749e-06 2.61905e-06 -2.69373e-07 -0.0103056 0.000377012 -4.10729e-05 0.0230774 -0.205241)
(-3.67632e-05 -1.15195e-05 7.10801e-06 -6.08554e-06 -0.0103222 0.000379165 -9.9131e-05 0.0229417 -0.20521)
(-0.000279538 -6.97615e-05 -0.000105965 -3.85152e-05 -0.0103006 0.000369694 -0.000447232 0.0229488 -0.205114)
(-0.00209817 -0.000297641 -0.000982642 -0.000173877 -0.0101054 0.000357494 -0.00286165 0.0222766 -0.205465)
(-0.0187983 -0.000267732 0.00511958 -0.00062786 -0.00929969 0.000151445 -0.0236913 0.0198272 -0.207529)
(-0.0903953 0.00186602 0.118754 -0.0037985 -0.00882746 0.00124164 -0.225545 0.0192594 -0.150987)
(-0.0914189 -0.00121564 -0.12064 0.00244181 -0.00556871 0.000652374 0.229141 0.0121464 -0.150958)
(-0.0190867 0.000170161 -0.00519168 0.000452334 -0.00576949 -5.17258e-05 0.0242833 0.0123488 -0.208326)
(-0.00214851 0.000211569 0.00100046 0.000132997 -0.00637944 7.49794e-05 0.00302743 0.0141548 -0.206271)
(-0.000293536 5.30658e-05 0.000107654 3.04076e-05 -0.00653795 9.19997e-05 0.000464556 0.0145596 -0.205942)
(-3.97749e-05 7.22154e-06 -4.84017e-06 3.6839e-06 -0.00655948 9.04508e-05 0.000111398 0.0146368 -0.206008)
(-5.12054e-06 1.85735e-06 -2.75104e-06 2.82096e-07 -0.00655816 9.90968e-05 5.6661e-05 0.0146329 -0.206042)
(-1.20812e-06 -2.25968e-06 4.15258e-07 -1.62835e-06 -0.00655244 9.23866e-05 4.53246e-05 0.0147307 -0.206052)
(-1.40423e-06 -2.89762e-06 1.01254e-06 -1.29961e-06 -0.006546 9.17559e-05 3.43646e-05 0.0146123 -0.206045)
(-8.31148e-07 1.95659e-06 -2.29513e-07 1.15092e-06 -0.00655167 9.65533e-05 2.63208e-05 0.0146204 -0.206046)
(-6.59862e-07 -1.06758e-07 -2.14216e-07 -4.31769e-07 -0.00653841 9.33127e-05 2.3958e-05 0.0147093 -0.206051)
(-1.36655e-06 -1.7374e-06 -8.53049e-08 -2.72493e-06 -0.00654973 9.21849e-05 1.65981e-05 0.0146194 -0.206044)
(-4.10367e-07 1.85529e-06 -2.94097e-07 9.39379e-07 -0.00653389 8.69447e-05 -5.63298e-06 0.0146357 -0.206041)
(6.47969e-07 4.64087e-07 5.15871e-07 1.87358e-06 -0.00652724 9.07702e-05 6.59519e-06 0.0147195 -0.206043)
(-5.43697e-07 -3.30945e-06 9.89028e-07 -1.44062e-06 -0.00654935 9.26448e-05 1.98921e-05 0.014621 -0.206041)
(-1.05834e-06 1.08978e-06 -2.38359e-07 7.80625e-07 -0.00654678 8.92588e-05 4.34487e-07 0.0146084 -0.206042)
(-1.28644e-07 1.1997e-06 6.26014e-09 1.17292e-06 -0.0065397 9.167e-05 -3.99767e-06 0.014708 -0.206048)
(-3.28736e-07 -2.28241e-06 2.50998e-07 -1.6307e-06 -0.00654917 9.23703e-05 -3.88301e-06 0.0146187 -0.206043)
(-7.87821e-07 -7.93417e-07 -8.01829e-07 -1.84935e-06 -0.00654533 9.05432e-05 -7.25209e-06 0.0146095 -0.206042)
(-4.89698e-07 -2.03847e-07 -5.07656e-07 -6.79036e-07 -0.006539 8.91591e-05 -2.43956e-05 0.0146307 -0.206042)
(-3.89757e-07 -1.23799e-06 2.88253e-07 -1.25947e-06 -0.00652962 8.75088e-05 -2.90756e-05 0.0146084 -0.206035)
(-2.682e-07 2.71992e-06 -5.59333e-07 2.24457e-06 -0.0065261 8.29751e-05 -9.77698e-06 0.014544 -0.206032)
(-8.9157e-07 1.61664e-06 2.68533e-07 3.0196e-06 -0.00655676 9.54539e-05 -1.28636e-05 0.0146325 -0.206046)
(-2.09231e-06 1.18445e-06 2.10118e-08 6.13023e-07 -0.00654548 9.17324e-05 -3.41144e-05 0.0146143 -0.206046)
(-1.47277e-06 5.06264e-06 -1.97249e-06 2.34503e-06 -0.00654584 9.29732e-05 -5.96225e-05 0.0147256 -0.206052)
(-4.10199e-06 -2.61047e-06 2.04628e-06 -8.95309e-07 -0.00654163 9.6556e-05 -6.79564e-05 0.0147388 -0.206044)
(-3.95658e-05 -1.11304e-05 6.11487e-06 -7.37125e-06 -0.00653385 8.99455e-05 -9.14198e-05 0.014617 -0.206011)
(-0.000294085 -5.14945e-05 -0.000107113 -2.89812e-05 -0.00653267 8.31154e-05 -0.000451804 0.0145752 -0.205933)
(-0.00214886 -0.000210757 -0.000999098 -0.000131076 -0.0063837 7.75024e-05 -0.00303241 0.0141532 -0.206263)
(-0.0190858 -0.000169037 0.00519072 -0.000452343 -0.00577183 -5.23432e-05 -0.0242902 0.0123468 -0.208301)
(-0.0914156 0.00122158 0.120631 -0.0024506 -0.00557301 0.000656951 -0.229127 0.01216 -0.150962)
(-0.0920463 -0.000750494 -0.121799 0.00149048 -0.0035159 0.000380291 0.231354 0.00765006 -0.150982)
(-0.0192621 0.000106789 -0.00523599 0.0003027 -0.00357485 -5.15713e-05 0.0246819 0.00768369 -0.208849)
(-0.00218266 0.000145954 0.00101148 9.83144e-05 -0.00402834 2.86798e-05 0.00314664 0.00885673 -0.206796)
(-0.000304584 3.85783e-05 0.000109023 2.29295e-05 -0.0041398 3.71028e-05 0.000491939 0.00921248 -0.206478)
(-4.23392e-05 5.44112e-06 -4.42786e-06 3.1937e-06 -0.00415747 3.68459e-05 0.000112647 0.00926956 -0.20656)
(-5.59745e-06 1.29249e-06 -2.41945e-06 5.64262e-07 -0.00415594 3.95172e-05 5.63704e-05 0.00926904 -0.20658)
(-1.34399e-06 -1.33721e-06 -3.21396e-08 -1.22049e-06 -0.00416113 4.20419e-05 4.3941e-05 0.00927532 -0.206586)
(-1.1717e-06 -1.70516e-06 9.80722e-07 -8.00084e-07 -0.00414844 3.672e-05 3.40913e-05 0.00925598 -0.206585)
(-7.93664e-07 1.28157e-06 4.05818e-08 4.65688e-07 -0.00415142 3.86413e-05 2.70985e-05 0.00926083 -0.206583)
(-1.05279e-06 -6.85139e-09 -5.4559e-08 -4.5864e-07 -0.00415482 3.98611e-05 2.35332e-05 0.0092676 -0.20657)
(-1.08357e-06 -1.79699e-07 -1.12421e-06 -9.8971e-07 -0.00415072 4.03959e-05 1.56448e-06 0.00926033 -0.206581)
(1.32457e-07 2.85057e-06 -8.05185e-07 1.8774e-06 -0.00413917 3.54935e-05 8.75318e-06 0.00926886 -0.206578)
(1.22165e-07 -6.34272e-07 1.30089e-06 6.25038e-07 -0.00415138 3.83063e-05 2.09911e-05 0.00935931 -0.206586)
(-7.37408e-07 -4.17461e-06 7.26438e-07 -2.66372e-06 -0.00415013 3.68405e-05 5.2799e-06 0.00926242 -0.20658)
(-6.52999e-07 5.66369e-07 -2.51844e-07 1.13262e-07 -0.00415238 3.59333e-05 5.66991e-07 0.0092516 -0.206581)
(-2.99918e-07 1.1781e-06 2.777e-07 1.25835e-06 -0.00415458 3.72592e-05 -2.98446e-06 0.00926804 -0.206571)
(-7.01615e-07 -1.4925e-06 1.02037e-07 -9.1874e-07 -0.00414961 3.65798e-05 -4.80402e-06 0.0092609 -0.206583)
(-5.51493e-07 -5.10047e-07 -1.01079e-06 -1.7173e-06 -0.00414858 3.44914e-05 -2.12717e-05 0.00925462 -0.206582)
(-1.29328e-07 1.35937e-06 -6.03387e-07 7.06773e-07 -0.00413634 3.45973e-05 -1.08146e-05 0.0091978 -0.206558)
(-4.53382e-07 1.86395e-06 -2.99118e-07 1.68596e-06 -0.00414657 3.54319e-05 -1.5943e-05 0.00933975 -0.206584)
(-2.10367e-07 3.19951e-07 3.43602e-07 7.99646e-07 -0.0041296 3.18145e-05 -2.18161e-05 0.00935113 -0.206584)
(-8.8838e-07 -1.54006e-06 1.12362e-06 9.77625e-08 -0.00415481 4.1435e-05 -1.1788e-05 0.00926863 -0.206583)
(-1.89687e-06 7.97066e-07 -5.614e-07 4.18748e-07 -0.00414807 3.72278e-05 -3.38028e-05 0.00925829 -0.206585)
(-1.43186e-06 4.56422e-06 -1.19313e-06 2.88565e-06 -0.00415827 3.99013e-05 -4.4604e-05 0.00927453 -0.206585)
(-5.36791e-06 -6.11357e-08 2.01352e-06 5.24614e-07 -0.0041608 4.42038e-05 -5.45882e-05 0.00936822 -0.206583)
(-4.23804e-05 -9.7293e-06 4.41989e-06 -7.22873e-06 -0.00414599 3.62707e-05 -0.000123638 0.00934583 -0.20656)
(-0.000304279 -3.97306e-05 -0.000108453 -2.39126e-05 -0.00412924 3.12945e-05 -0.000492581 0.00914528 -0.206463)
(-0.00218285 -0.000145472 -0.00100973 -9.65325e-05 -0.00403113 2.8029e-05 -0.00313618 0.00885464 -0.206788)
(-0.0192622 -0.000105595 0.00523547 -0.000302062 -0.00357563 -5.59285e-05 -0.0246851 0.00768241 -0.208843)
(-0.0920451 0.000755418 0.121797 -0.00149727 -0.00351654 0.000384843 -0.231351 0.00765872 -0.150984)
(-0.0924319 -0.000447505 -0.12249 0.000881364 -0.00222653 0.000235628 0.232672 0.00480087 -0.151004)
(-0.0193651 6.76738e-05 -0.005262 0.000192857 -0.00222314 -2.49711e-05 0.0249391 0.00478123 -0.209169)
(-0.00220446 9.85781e-05 0.0010182 7.06446e-05 -0.00254179 2.55361e-05 0.00323336 0.00556219 -0.207125)
(-0.00031256 2.72389e-05 0.000109287 1.6805e-05 -0.00262682 2.8481e-05 0.000512986 0.0058162 -0.206814)
(-4.42479e-05 3.99407e-06 -4.35729e-06 2.5252e-06 -0.00264488 2.76025e-05 0.000117515 0.00586025 -0.206887)
(-6.00338e-06 1.12523e-06 -1.71185e-06 1.00212e-06 -0.00264018 2.8617e-05 5.62495e-05 0.00585853 -0.206919)
(-1.48099e-06 -7.59755e-07 -1.44186e-07 -7.90159e-07 -0.00264278 3.28916e-05 4.28595e-05 0.00586098 -0.206923)